================================================================================
| EXCITING OXYGEN started                                                      =
|                                                                              =
| compiler: ifort (IFORT) 19.1.0.166 20191121                                  =
|                                                                              =
|                                                                              =
| Date (DD-MM-YYYY) : 24-01-2022                                               =
| Time (hh:mm:ss)   : 18:09:05                                                 =
|                                                                              =
| All units are atomic (Hartree, Bohr, etc.)                                   =
================================================================================
 
********************************************************************************
* Structural optimisation starting from atomic densities                       *
********************************************************************************
 
++++++++++++++++++++++++++++++++++++++++++++++++++++++++++++++++++++++++++++++++
+ Starting initialization                                                      +
++++++++++++++++++++++++++++++++++++++++++++++++++++++++++++++++++++++++++++++++
 
 Lattice vectors (cartesian) :
      3.1916279793      0.0000000000      0.0000000000
      0.0000000000      5.5260000229      0.0000000000
      0.0000000000      0.0000000000     12.0000000000
 
 Reciprocal lattice vectors (cartesian) :
      1.9686458910      0.0000000000      0.0000000000
      0.0000000000      1.1370223093      0.0000000000
      0.0000000000      0.0000000000      0.5235987756
 
 Unit cell volume                           :     211.6432354404
 Brillouin zone volume                      :       1.1720205133
 
 Species :    1 (Mo)
     parameters loaded from                 :    Mo.xml
     name                                   :    molybdenum
     nuclear charge                         :     -42.00000000
     electronic charge                      :      42.00000000
     atomic mass                            :  174887.92120000
     muffin-tin radius                      :       1.00000000
     # of radial points in muffin-tin       :     400
 
     atomic positions (cartesian) :
       1 :   0.00000000  0.00000000  0.00000000
       2 :   1.59640933  2.76300001  0.00000000
 
 Species :    2 (S)
     parameters loaded from                 :    S.xml
     name                                   :    sulphur
     nuclear charge                         :     -16.00000000
     electronic charge                      :      16.00000000
     atomic mass                            :   58452.74216000
     muffin-tin radius                      :       1.00000000
     # of radial points in muffin-tin       :     300
 
     atomic positions (cartesian) :
       1 :   0.00000000  3.68400004  1.56720000
       2 :   0.00000000  3.68400004 10.43280000
       3 :   1.59640933  0.92100012  1.56720000
       4 :   1.59640933  0.92100012 10.43280000
 
 Total number of atoms per unit cell        :       6
 
 Spin treatment                             :    spin-unpolarised
 
 Number of Bravais lattice symmetries       :       8
 Number of crystal symmetries               :       4
 
 k-point grid                               :       1    1    1
 k-point offset :       0.500000  0.500000  0.500000
 Total number of k-points                   :       1
 k-point set is reduced with crystal symmetries
 
 R^MT_min * |G+k|_max (rgkmax)              :       5.00000000
 Species with R^MT_min                      :       1 (Mo)
 Maximum |G+k| for APW functions            :       5.00000000
 Maximum |G| for potential and density      :      12.00000000
 
 G-vector grid sizes                        :      15    24    48
 Total number of G-vectors                  :    6121
 
 Maximum angular momentum used for
     APW functions                          :       8
     computing H and O matrix elements      :       8
     potential and density                  :       8
     inner part of muffin-tin               :       2
 
 Total nuclear charge                       :    -148.00000000
 Total electronic charge                    :     148.00000000
 Total core charge                          :      96.00000000
 Total valence charge                       :      52.00000000
 
 Number of empty states                     :      10
 Total number of valence states             :      37
 
 Maximum Hamiltonian size                   :     466
 Maximum number of plane-waves              :     424
 Total number of local-orbitals             :      42
 
 
 Optimised effective potential (OEP) and exact exchange (EXX)
     Phys. Rev. B 53, 7024 (1996)
     Correlation type                       :       1
     No density-derived exchange-correlation energy or potential
 
 Smearing scheme                            :    Gaussian
 Smearing width                             :       0.00100000
 
 Using multisecant Broyden potential mixing
 
++++++++++++++++++++++++++++++++++++++++++++++++++++++++++++++++++++++++++++++++
+ Ending initialization                                                        +
++++++++++++++++++++++++++++++++++++++++++++++++++++++++++++++++++++++++++++++++
 
********************************************************************************
* Groundstate module started                                                   *
********************************************************************************
 Output level for this task is set to normal
 
++++++++++++++++++++++++++++++++++++++++++++++++++++++++++++++++++++++++++++++++
+ Self-consistent loop started                                                 +
++++++++++++++++++++++++++++++++++++++++++++++++++++++++++++++++++++++++++++++++
 Density and potential initialised from atomic data
 
 
++++++++++++++++++++++++++++++++++++++++++++++++++++++++++++++++++++++++++++++++
+ SCF iteration number :    1                                                  +
++++++++++++++++++++++++++++++++++++++++++++++++++++++++++++++++++++++++++++++++
 Total energy                               :     -9302.52804190
 _______________________________________________________________
 Fermi energy                               :         0.04709185
 Kinetic energy                             :     10162.73549644
 Coulomb energy                             :    -19465.26353834
 Exchange energy                            :         0.00000000
 Correlation energy                         :         0.00000000
 
 DOS at Fermi energy (states/Ha/cell)       :         0.00000000
 
 Electron charges :
     core                                   :        96.00000000
     core leakage                           :         2.02929875
     valence                                :        52.00000000
     interstitial                           :         9.97707843
     charge in muffin-tin spheres :
                  atom     1    Mo          :        33.77653543
                  atom     2    Mo          :        33.77653543
                  atom     3     S          :        17.61746267
                  atom     4     S          :        17.61746267
                  atom     5     S          :        17.61746267
                  atom     6     S          :        17.61746267
     total charge in muffin-tins            :       138.02292157
     total charge                           :       148.00000000
 
 Estimated fundamental gap                  :         0.07584490
        valence-band maximum at    1      0.5000  0.5000  0.5000
     conduction-band minimum at    1      0.5000  0.5000  0.5000
 
 Wall time (seconds)                        :       277.06
 
++++++++++++++++++++++++++++++++++++++++++++++++++++++++++++++++++++++++++++++++
+ SCF iteration number :    2                                                  +
++++++++++++++++++++++++++++++++++++++++++++++++++++++++++++++++++++++++++++++++
 Total energy                               :     -9724.10361357
 _______________________________________________________________
 Fermi energy                               :        -0.81169509
 Kinetic energy                             :     10509.38867310
 Coulomb energy                             :    -20233.49228668
 Exchange energy                            :         0.00000000
 Correlation energy                         :         0.00000000
 
 DOS at Fermi energy (states/Ha/cell)       :         0.00000000
 
 Electron charges :
     core                                   :        96.00000000
     core leakage                           :         2.05653898
     valence                                :        52.00000000
     interstitial                           :         6.28284785
     charge in muffin-tin spheres :
                  atom     1    Mo          :        36.44113884
                  atom     2    Mo          :        36.44113884
                  atom     3     S          :        17.20871862
                  atom     4     S          :        17.20871862
                  atom     5     S          :        17.20871862
                  atom     6     S          :        17.20871862
     total charge in muffin-tins            :       141.71715215
     total charge                           :       148.00000000
 
 Estimated fundamental gap                  :         0.14015848
        valence-band maximum at    1      0.5000  0.5000  0.5000
     conduction-band minimum at    1      0.5000  0.5000  0.5000
 
 Wall time (seconds)                        :       550.15
 
 Magnitude of OEP residual                  :         0.00001184
 
 RMS change in effective potential (target) :   11.5291      ( 0.100000E-05)
 Abs. change in max-nonIBS-force   (target) :   13.4843      ( 0.500000E-04)
 
++++++++++++++++++++++++++++++++++++++++++++++++++++++++++++++++++++++++++++++++
+ Reached self-consistent loops maximum :    3                                 +
++++++++++++++++++++++++++++++++++++++++++++++++++++++++++++++++++++++++++++++++
 Total energy                               :     -9906.11501268
 _______________________________________________________________
 Fermi energy                               :        -0.69296503
 Kinetic energy                             :     10311.42461156
 Coulomb energy                             :    -19760.47916343
 Exchange energy                            :      -457.06046081
 Correlation energy                         :         0.00000000
 
 DOS at Fermi energy (states/Ha/cell)       :         0.00000000
 
 Electron charges :
     core                                   :        96.00000000
     core leakage                           :         2.23748584
     valence                                :        52.00000000
     interstitial                           :         7.54725013
     charge in muffin-tin spheres :
                  atom     1    Mo          :        36.16590717
                  atom     2    Mo          :        36.16590717
                  atom     3     S          :        17.03023388
                  atom     4     S          :        17.03023388
                  atom     5     S          :        17.03023388
                  atom     6     S          :        17.03023388
     total charge in muffin-tins            :       140.45274987
     total charge                           :       148.00000000
 
 Estimated fundamental gap                  :         0.16783153
        valence-band maximum at    1      0.5000  0.5000  0.5000
     conduction-band minimum at    1      0.5000  0.5000  0.5000
 
++++++++++++++++++++++++++++++++++++++++++++++++++++++++++++++++++++++++++++++++
+ Self-consistent loop stopped                                                 +
++++++++++++++++++++++++++++++++++++++++++++++++++++++++++++++++++++++++++++++++
 STATE.OUT is written
 
--------------------------------------------------------------------------------
- Writing atomic positions and forces                                          -
--------------------------------------------------------------------------------
 
 Atomic positions (cartesian) :
 atom     1  Mo  :     0.00000000    0.00000000    0.00000000
 atom     2  Mo  :     1.59640933    2.76300001    0.00000000
 atom     3   S  :     0.00000000    3.68400004    1.56720000
 atom     4   S  :     0.00000000    3.68400004   10.43280000
 atom     5   S  :     1.59640933    0.92100012    1.56720000
 atom     6   S  :     1.59640933    0.92100012   10.43280000
 
 Total atomic forces including IBS (cartesian) :
 atom     1  Mo  :    -4.60865205 -146.05308769    0.00000000
 atom     2  Mo  :     4.60865205 -146.05308769    0.00000000
 atom     3   S  :    -0.66797508   73.02654384 -308.71848559
 atom     4   S  :    -0.66797508   73.02654384  308.71848559
 atom     5   S  :     0.66797508   73.02654384 -308.71848559
 atom     6   S  :     0.66797508   73.02654384  308.71848559
 
 Atomic force components including IBS (cartesian) :
 atom     1  Mo  :    -0.01440077    0.49069335    0.00000000   HF force
                 :    -4.40434355 -144.66501859    0.00000000   core correction
                 :    -0.18990773   -1.87876245    0.00000000   IBS correction
 atom     2  Mo  :     0.01440077    0.49069335    0.00000000   HF force
                 :     4.40434355 -144.66501859    0.00000000   core correction
                 :     0.18990773   -1.87876245    0.00000000   IBS correction
 atom     3   S  :     0.00189643   -0.24534668   16.80246951   HF force
                 :    -0.65477683   72.33250929 -294.01847469   core correction
                 :    -0.01509469    0.93938122  -31.50248040   IBS correction
 atom     4   S  :     0.00189643   -0.24534668  -16.80246951   HF force
                 :    -0.65477683   72.33250929  294.01847469   core correction
                 :    -0.01509469    0.93938122   31.50248040   IBS correction
 atom     5   S  :    -0.00189643   -0.24534668   16.80246951   HF force
                 :     0.65477683   72.33250929 -294.01847469   core correction
                 :     0.01509469    0.93938122  -31.50248040   IBS correction
 atom     6   S  :    -0.00189643   -0.24534668  -16.80246951   HF force
                 :     0.65477683   72.33250929  294.01847469   core correction
                 :     0.01509469    0.93938122   31.50248040   IBS correction
 
********************************************************************************
* Groundstate module stopped                                                   *
********************************************************************************
 
********************************************************************************
* Structure-optimization module started                                        *
********************************************************************************
 Output level for this task is set to normal
 
 Maximum displacement tau_BFGS   is         :         0.3000
 Maximum displacement tau_newton is         :         0.2000
 
++++++++++++++++++++++++++++++++++++++++++++++++++++++++++++++++++++++++++++++++
+ Use L-BFGS-B method for optimizing atomic positions                          +
++++++++++++++++++++++++++++++++++++++++++++++++++++++++++++++++++++++++++++++++
 
--------------------------------------------------------------------------------
- Optimization step 0: Initialize optimization                                 -
--------------------------------------------------------------------------------
 Maximum force magnitude           (target) :       317.23875179  (  0.00020000)
 Total energy at this optimization step     :     -9906.11501268
 
 Atomic positions at this step (cartesian) :
 atom     1  Mo  :     0.00000000    0.00000000    0.00000000
 atom     2  Mo  :     1.59640933    2.76300001    0.00000000
 atom     3   S  :     0.00000000    3.68400004    1.56720000
 atom     4   S  :     0.00000000    3.68400004   10.43280000
 atom     5   S  :     1.59640933    0.92100012    1.56720000
 atom     6   S  :     1.59640933    0.92100012   10.43280000
 
 Total atomic forces including IBS (cartesian) :
 atom     1  Mo  :    -4.60865205 -146.05308769    0.00000000
 atom     2  Mo  :     4.60865205 -146.05308769    0.00000000
 atom     3   S  :    -0.66797508   73.02654384 -308.71848559
 atom     4   S  :    -0.66797508   73.02654384  308.71848559
 atom     5   S  :     0.66797508   73.02654384 -308.71848559
 atom     6   S  :     0.66797508   73.02654384  308.71848559
 
--------------------------------------------------------------------------------
- Optimization step    1    (method = bfgs)                                    -
--------------------------------------------------------------------------------
 Convergence target for the total energy decreased to  0.400000E-05 Ha
 
