 vasp.5.4.4.18Apr17-6-g9f103f2a35 (build Oct 03 2021 14:18:19) complex          
  
 executed on             LinuxGNU date 2022.01.13  20:42:43
 running on   16 total cores
 distrk:  each k-point on   16 cores,    1 groups
 distr:  one band on NCORES_PER_BAND=   1 cores,   16 groups


--------------------------------------------------------------------------------------------------------


 INCAR:
 POTCAR:    PAW_PBE Si 05Jan2001                  

 ----------------------------------------------------------------------------- 
|                                                                             |
|           W    W    AA    RRRRR   N    N  II  N    N   GGGG   !!!           |
|           W    W   A  A   R    R  NN   N  II  NN   N  G    G  !!!           |
|           W    W  A    A  R    R  N N  N  II  N N  N  G       !!!           |
|           W WW W  AAAAAA  RRRRR   N  N N  II  N  N N  G  GGG   !            |
|           WW  WW  A    A  R   R   N   NN  II  N   NN  G    G                |
|           W    W  A    A  R    R  N    N  II  N    N   GGGG   !!!           |
|                                                                             |
|      For optimal performance we recommend to set                            |
|        NCORE= 4 - approx SQRT( number of cores)                             |
|      NCORE specifies how many cores store one orbital (NPAR=cpu/NCORE).     |
|      This setting can  greatly improve the performance of VASP for DFT.     |
|      The default,   NCORE=1            might be grossly inefficient         |
|      on modern multi-core architectures or massively parallel machines.     |
|      Do your own testing !!!!                                               |
|      Unfortunately you need to use the default for GW and RPA calculations. |
|      (for HF NCORE is supported but not extensively tested yet)             |
|                                                                             |
 ----------------------------------------------------------------------------- 

 POTCAR:    PAW_PBE Si 05Jan2001                  
   VRHFIN =Si: s2p2                                                             
   LEXCH  = PE                                                                  
   EATOM  =   103.0669 eV,    7.5752 Ry                                         
                                                                                
   TITEL  = PAW_PBE Si 05Jan2001                                                
   LULTRA =        F    use ultrasoft PP ?                                      
   IUNSCR =        1    unscreen: 0-lin 1-nonlin 2-no                           
   RPACOR =    1.500    partial core radius                                     
   POMASS =   28.085; ZVAL   =    4.000    mass and valenz                      
   RCORE  =    1.900    outmost cutoff radius                                   
   RWIGS  =    2.480; RWIGS  =    1.312    wigner-seitz radius (au A)           
   ENMAX  =  245.345; ENMIN  =  184.009 eV                                      
   ICORE  =        2    local potential                                         
   LCOR   =        T    correct aug charges                                     
   LPAW   =        T    paw PP                                                  
   EAUG   =  322.069                                                            
   DEXC   =    0.000                                                            
   RMAX   =    1.950    core radius for proj-oper                               
   RAUG   =    1.300    factor for augmentation sphere                          
   RDEP   =    1.993    radius for radial grids                                 
   RDEPT  =    1.837    core radius for aug-charge                              
                                                                                
   Atomic configuration                                                         
    6 entries                                                                   
     n  l   j            E        occ.                                          
     1  0  0.50     -1785.8828   2.0000                                         
     2  0  0.50      -139.4969   2.0000                                         
     2  1  1.50       -95.5546   6.0000                                         
     3  0  0.50       -10.8127   2.0000                                         
     3  1  0.50        -4.0811   2.0000                                         
     3  2  1.50        -4.0817   0.0000                                         
   Description                                                                  
     l       E           TYP  RCUT    TYP  RCUT                                 
     0    -10.8127223     23  1.900                                             
     0     -7.6451159     23  1.900                                             
     1     -4.0811372     23  1.900                                             
     1      2.4879257     23  1.900                                             
     2     -4.0817478      7  1.900                                             
  local pseudopotential read in
  partial core-charges read in
  partial kinetic energy density read in
  atomic valenz-charges read in
  non local Contribution for L=           0  read in
    real space projection operators read in
  non local Contribution for L=           0  read in
    real space projection operators read in
  non local Contribution for L=           1  read in
    real space projection operators read in
  non local Contribution for L=           1  read in
    real space projection operators read in
    PAW grid and wavefunctions read in
 
   number of l-projection  operators is LMAX  =           4
   number of lm-projection operators is LMMAX =           8
 
  PAW_PBE Si 05Jan2001                  :
 energy of atom  1       EATOM= -103.0669
 kinetic energy error for atom=    0.0052 (will be added to EATOM!!)
 
 
 POSCAR: Si                                      
  positions in cartesian coordinates
  No initial velocities read in
 exchange correlation table for  LEXCH =        8
   RHO(1)=    0.500       N(1)  =     2000
   RHO(2)=  100.500       N(2)  =     4000
 


--------------------------------------------------------------------------------------------------------


 ion  position               nearest neighbor table
   1  0.000  0.000  0.000-   2 2.35   2 2.35   2 2.35   2 2.35
   2  0.250  0.250  0.250-   1 2.35   1 2.35   1 2.35   1 2.35
 
  LATTYP: Found a face centered cubic cell.
 ALAT       =     5.4300000000
  
  Lattice vectors:
  
 A1 = (   2.7150000000,   2.7150000000,   0.0000000000)
 A2 = (   0.0000000000,   2.7150000000,   2.7150000000)
 A3 = (   2.7150000000,   0.0000000000,   2.7150000000)


Analysis of symmetry for initial positions (statically):
=====================================================================
 Subroutine PRICEL returns:
 Original cell was already a primitive cell.
 

 Routine SETGRP: Setting up the symmetry group for a 
 face centered cubic supercell.


 Subroutine GETGRP returns: Found 48 space group operations
 (whereof 24 operations were pure point group operations)
 out of a pool of 48 trial point group operations.


The static configuration has the point symmetry T_d .
 The point group associated with its full space group is O_h .


Analysis of symmetry for dynamics (positions and initial velocities):
=====================================================================
 Subroutine PRICEL returns:
 Original cell was already a primitive cell.
 

 Routine SETGRP: Setting up the symmetry group for a 
 face centered cubic supercell.


 Subroutine GETGRP returns: Found 48 space group operations
 (whereof 24 operations were pure point group operations)
 out of a pool of 48 trial point group operations.


The dynamic configuration has the point symmetry T_d .
 The point group associated with its full space group is O_h .


 Subroutine INISYM returns: Found 48 space group operations
 (whereof 24 operations are pure point group operations),
 and found     1 'primitive' translations

 
 
 KPOINTS: Automatically generated mesh            

Automatic generation of k-mesh.
Space group operators:
 irot       det(A)        alpha          n_x          n_y          n_z        tau_x        tau_y        tau_z
    1     1.000000     0.000001     1.000000     0.000000     0.000000     0.000000     0.000000     0.000000
    2     1.000000   120.000000    -0.577350    -0.577350    -0.577350     0.000000     0.000000     0.000000
    3     1.000000   120.000000     0.577350     0.577350     0.577350     0.000000     0.000000     0.000000
    4    -1.000000    90.000000    -0.000000    -1.000000    -0.000000     0.000000     0.000000     0.000000
    5    -1.000000   180.000000     0.707107     0.707107    -0.000000     0.000000     0.000000     0.000000
    6    -1.000000    90.000000     1.000000    -0.000000    -0.000000     0.000000     0.000000     0.000000
    7     1.000000   180.000000    -0.000000    -1.000000     0.000000     0.000000     0.000000     0.000000
    8     1.000000   120.000000     0.577350     0.577350    -0.577350     0.000000     0.000000     0.000000
    9     1.000000   120.000000     0.577350    -0.577350    -0.577350     0.000000     0.000000     0.000000
   10    -1.000000    90.000000     0.000000     1.000000     0.000000     0.000000     0.000000     0.000000
   11    -1.000000    90.000000     0.000000    -0.000000    -1.000000     0.000000     0.000000     0.000000
   12    -1.000000   180.000000    -0.000000    -0.707107    -0.707107     0.000000     0.000000     0.000000
   13     1.000000   120.000000    -0.577350     0.577350     0.577350     0.000000     0.000000     0.000000
   14     1.000000   120.000000    -0.577350     0.577350    -0.577350     0.000000     0.000000     0.000000
   15     1.000000   180.000000    -0.000000     0.000000    -1.000000     0.000000     0.000000     0.000000
   16    -1.000000    90.000000    -1.000000     0.000000     0.000000     0.000000     0.000000     0.000000
   17    -1.000000   180.000000     0.707107     0.000000     0.707107     0.000000     0.000000     0.000000
   18    -1.000000    90.000000     0.000000     0.000000     1.000000     0.000000     0.000000     0.000000
   19     1.000000   120.000000    -0.577350    -0.577350     0.577350     0.000000     0.000000     0.000000
   20     1.000000   180.000000     1.000000     0.000000     0.000000     0.000000     0.000000     0.000000
   21     1.000000   120.000000     0.577350    -0.577350     0.577350     0.000000     0.000000     0.000000
   22    -1.000000   180.000000    -0.707107     0.707107    -0.000000     0.000000     0.000000     0.000000
   23    -1.000000   180.000000     0.707107     0.000000    -0.707107     0.000000     0.000000     0.000000
   24    -1.000000   180.000000     0.000000     0.707107    -0.707107     0.000000     0.000000     0.000000
   25    -1.000000     0.000001     1.000000     0.000000     0.000000     0.250000     0.250000     0.250000
   26    -1.000000   120.000000    -0.577350    -0.577350    -0.577350     0.250000     0.250000     0.250000
   27    -1.000000   120.000000     0.577350     0.577350     0.577350     0.250000     0.250000     0.250000
   28     1.000000    90.000000    -0.000000    -1.000000    -0.000000     0.250000     0.250000     0.250000
   29     1.000000   180.000000     0.707107     0.707107    -0.000000     0.250000     0.250000     0.250000
   30     1.000000    90.000000     1.000000    -0.000000    -0.000000     0.250000     0.250000     0.250000
   31    -1.000000   180.000000    -0.000000    -1.000000     0.000000     0.250000     0.250000     0.250000
   32    -1.000000   120.000000     0.577350     0.577350    -0.577350     0.250000     0.250000     0.250000
   33    -1.000000   120.000000     0.577350    -0.577350    -0.577350     0.250000     0.250000     0.250000
   34     1.000000    90.000000     0.000000     1.000000     0.000000     0.250000     0.250000     0.250000
   35     1.000000    90.000000     0.000000    -0.000000    -1.000000     0.250000     0.250000     0.250000
   36     1.000000   180.000000    -0.000000    -0.707107    -0.707107     0.250000     0.250000     0.250000
   37    -1.000000   120.000000    -0.577350     0.577350     0.577350     0.250000     0.250000     0.250000
   38    -1.000000   120.000000    -0.577350     0.577350    -0.577350     0.250000     0.250000     0.250000
   39    -1.000000   180.000000    -0.000000     0.000000    -1.000000     0.250000     0.250000     0.250000
   40     1.000000    90.000000    -1.000000     0.000000     0.000000     0.250000     0.250000     0.250000
   41     1.000000   180.000000     0.707107     0.000000     0.707107     0.250000     0.250000     0.250000
   42     1.000000    90.000000     0.000000     0.000000     1.000000     0.250000     0.250000     0.250000
   43    -1.000000   120.000000    -0.577350    -0.577350     0.577350     0.250000     0.250000     0.250000
   44    -1.000000   180.000000     1.000000     0.000000     0.000000     0.250000     0.250000     0.250000
   45    -1.000000   120.000000     0.577350    -0.577350     0.577350     0.250000     0.250000     0.250000
   46     1.000000   180.000000    -0.707107     0.707107    -0.000000     0.250000     0.250000     0.250000
   47     1.000000   180.000000     0.707107     0.000000    -0.707107     0.250000     0.250000     0.250000
   48     1.000000   180.000000     0.000000     0.707107    -0.707107     0.250000     0.250000     0.250000
 
 Subroutine IBZKPT returns following result:
 ===========================================
 
 Found      8 irreducible k-points:
 
 Following reciprocal coordinates:
            Coordinates               Weight
  0.000000  0.000000  0.000000      1.000000
  0.250000 -0.000000  0.000000      8.000000
  0.500000 -0.000000  0.000000      4.000000
  0.250000  0.250000  0.000000      6.000000
  0.500000  0.250000  0.000000     24.000000
 -0.250000  0.250000  0.000000     12.000000
  0.500000  0.500000  0.000000      3.000000
 -0.250000  0.500000  0.250000      6.000000
 
 Following cartesian coordinates:
            Coordinates               Weight
  0.000000  0.000000  0.000000      1.000000
  0.250000  0.250000 -0.250000      8.000000
  0.500000  0.500000 -0.500000      4.000000
  0.000000  0.500000  0.000000      6.000000
  0.250000  0.750000 -0.250000     24.000000
 -0.500000 -0.000000  0.500000     12.000000
  0.000000  1.000000  0.000000      3.000000
 -0.500000  0.000000  1.000000      6.000000
 
 
 Subroutine IBZKPT_HF returns following result:
 ==============================================
 
 Found     64 k-points in 1st BZ
 the following     64 k-points will be used (e.g. in the exchange kernel)
 Following reciprocal coordinates:   # in IRBZ
  0.000000  0.000000  0.000000    0.01562500   1 t-inv F
  0.250000 -0.000000  0.000000    0.01562500   2 t-inv F
  0.500000 -0.000000  0.000000    0.01562500   3 t-inv F
  0.250000  0.250000  0.000000    0.01562500   4 t-inv F
  0.500000  0.250000  0.000000    0.01562500   5 t-inv F
 -0.250000  0.250000  0.000000    0.01562500   6 t-inv F
  0.500000  0.500000  0.000000    0.01562500   7 t-inv F
 -0.250000  0.500000  0.250000    0.01562500   8 t-inv F
  0.000000  0.250000 -0.000000    0.01562500   2 t-inv F
 -0.000000  0.000000  0.250000    0.01562500   2 t-inv F
 -0.250000 -0.250000 -0.250000    0.01562500   2 t-inv F
 -0.250000  0.000000 -0.000000    0.01562500   2 t-inv F
 -0.000000 -0.250000  0.000000    0.01562500   2 t-inv F
  0.000000 -0.000000 -0.250000    0.01562500   2 t-inv F
  0.250000  0.250000  0.250000    0.01562500   2 t-inv F
  0.000000  0.500000 -0.000000    0.01562500   3 t-inv F
 -0.000000  0.000000  0.500000    0.01562500   3 t-inv F
 -0.500000 -0.500000 -0.500000    0.01562500   3 t-inv F
  0.000000  0.250000  0.250000    0.01562500   4 t-inv F
  0.250000  0.000000  0.250000    0.01562500   4 t-inv F
 -0.250000 -0.250000  0.000000    0.01562500   4 t-inv F
 -0.250000  0.000000 -0.250000    0.01562500   4 t-inv F
  0.000000 -0.250000 -0.250000    0.01562500   4 t-inv F
  0.000000  0.500000  0.250000    0.01562500   5 t-inv F
  0.250000  0.000000  0.500000    0.01562500   5 t-inv F
 -0.250000 -0.250000  0.250000    0.01562500   5 t-inv F
 -0.500000 -0.250000 -0.500000    0.01562500   5 t-inv F
  0.250000  0.500000 -0.000000    0.01562500   5 t-inv F
  0.250000 -0.250000 -0.250000    0.01562500   5 t-inv F
 -0.500000 -0.500000 -0.250000    0.01562500   5 t-inv F
 -0.000000  0.250000  0.500000    0.01562500   5 t-inv F
 -0.250000  0.250000 -0.250000    0.01562500   5 t-inv F
 -0.250000 -0.500000 -0.500000    0.01562500   5 t-inv F
  0.500000 -0.000000  0.250000    0.01562500   5 t-inv F
 -0.500000 -0.250000 -0.000000    0.01562500   5 t-inv F
 -0.000000 -0.500000 -0.250000    0.01562500   5 t-inv F
 -0.250000 -0.000000 -0.500000    0.01562500   5 t-inv F
  0.250000  0.250000 -0.250000    0.01562500   5 t-inv F
  0.500000  0.250000  0.500000    0.01562500   5 t-inv F
 -0.250000 -0.500000  0.000000    0.01562500   5 t-inv F
 -0.250000  0.250000  0.250000    0.01562500   5 t-inv F
  0.500000  0.500000  0.250000    0.01562500   5 t-inv F
  0.000000 -0.250000 -0.500000    0.01562500   5 t-inv F
  0.250000 -0.250000  0.250000    0.01562500   5 t-inv F
  0.250000  0.500000  0.500000    0.01562500   5 t-inv F
 -0.500000  0.000000 -0.250000    0.01562500   5 t-inv F
  0.000000 -0.250000  0.250000    0.01562500   6 t-inv F
  0.250000  0.000000 -0.250000    0.01562500   6 t-inv F
 -0.250000 -0.250000 -0.500000    0.01562500   6 t-inv F
  0.250000  0.500000  0.250000    0.01562500   6 t-inv F
  0.250000 -0.250000 -0.000000    0.01562500   6 t-inv F
 -0.500000 -0.250000 -0.250000    0.01562500   6 t-inv F
  0.250000  0.250000  0.500000    0.01562500   6 t-inv F
 -0.000000  0.250000 -0.250000    0.01562500   6 t-inv F
 -0.250000 -0.500000 -0.250000    0.01562500   6 t-inv F
  0.500000  0.250000  0.250000    0.01562500   6 t-inv F
 -0.250000 -0.000000  0.250000    0.01562500   6 t-inv F
  0.000000  0.500000  0.500000    0.01562500   7 t-inv F
  0.500000  0.000000  0.500000    0.01562500   7 t-inv F
  0.250000 -0.250000  0.500000    0.01562500   8 t-inv F
  0.500000  0.250000 -0.250000    0.01562500   8 t-inv F
 -0.500000 -0.250000 -0.750000    0.01562500   8 t-inv F
  0.250000 -0.500000 -0.250000    0.01562500   8 t-inv F
 -0.250000  0.250000 -0.500000    0.01562500   8 t-inv F


--------------------------------------------------------------------------------------------------------




 Dimension of arrays:
   k-points           NKPTS =      8   k-points in BZ     NKDIM =     64   number of bands    NBANDS=     16
   number of dos      NEDOS =    301   number of ions     NIONS =      2
   non local maximal  LDIM  =      4   non local SUM 2l+1 LMDIM =      8
   total plane-waves  NPLWV =   4096
   max r-space proj   IRMAX =      1   max aug-charges    IRDMAX=   3621
   dimension x,y,z NGX =    16 NGY =   16 NGZ =   16
   dimension x,y,z NGXF=    32 NGYF=   32 NGZF=   32
   support grid    NGXF=    32 NGYF=   32 NGZF=   32
   ions per type =               2
   NGX,Y,Z   is equivalent  to a cutoff of   6.93,  6.93,  6.93 a.u.
   NGXF,Y,Z  is equivalent  to a cutoff of  13.86, 13.86, 13.86 a.u.

 SYSTEM =  Si                                      
 POSCAR =  Si                                      

 Startparameter for this run:
   NWRITE =      2    write-flag & timer
   PREC   = normal    normal or accurate (medium, high low for compatibility)
   ISTART =      1    job   : 0-new  1-cont  2-samecut
   ICHARG =      0    charge: 1-file 2-atom 10-const
   ISPIN  =      1    spin polarized calculation?
   LNONCOLLINEAR =      F non collinear calculations
   LSORBIT =      F    spin-orbit coupling
   INIWAV =      1    electr: 0-lowe 1-rand  2-diag
   LASPH  =      F    aspherical Exc in radial PAW
   METAGGA=      F    non-selfconsistent MetaGGA calc.

 Electronic Relaxation 1
   ENCUT  =  250.0 eV  18.37 Ry    4.29 a.u.   4.95  4.95  4.95*2*pi/ulx,y,z
   ENINI  =  250.0     initial cutoff
   ENAUG  =  322.1 eV  augmentation charge cutoff
   NELM   =     60;   NELMIN=  2; NELMDL=  0     # of ELM steps 
   EDIFF  = 0.1E-07   stopping-criterion for ELM
   LREAL  =      F    real-space projection
   NLSPLINE    = F    spline interpolate recip. space projectors
   LCOMPAT=      F    compatible to vasp.4.4
   GGA_COMPAT  = T    GGA compatible to vasp.4.4-vasp.4.6
   LMAXPAW     = -100 max onsite density
   LMAXMIX     =    2 max onsite mixed and CHGCAR
   VOSKOWN=      0    Vosko Wilk Nusair interpolation
   ROPT   =    0.00000
 Ionic relaxation
   EDIFFG = 0.1E-06   stopping-criterion for IOM
   NSW    =      0    number of steps for IOM
   NBLOCK =      1;   KBLOCK =      1    inner block; outer block 
   IBRION =     -1    ionic relax: 0-MD 1-quasi-New 2-CG
   NFREE  =      0    steps in history (QN), initial steepest desc. (CG)
   ISIF   =      0    stress and relaxation
   IWAVPR =     10    prediction:  0-non 1-charg 2-wave 3-comb
   ISYM   =      3    0-nonsym 1-usesym 2-fastsym
   LCORR  =      T    Harris-Foulkes like correction to forces

   POTIM  = 0.5000    time-step for ionic-motion
   TEIN   =    0.0    initial temperature
   TEBEG  =    0.0;   TEEND  =   0.0 temperature during run
   SMASS  =  -3.00    Nose mass-parameter (am)
   estimated Nose-frequenzy (Omega)   =  0.10E-29 period in steps =****** mass=  -0.337E-27a.u.
   SCALEE = 1.0000    scale energy and forces
   NPACO  =    256;   APACO  = 16.0  distance and # of slots for P.C.
   PSTRESS=    0.0 pullay stress

  Mass of Ions in am
   POMASS =  28.09
  Ionic Valenz
   ZVAL   =   4.00
  Atomic Wigner-Seitz radii
   RWIGS  =  -1.00
  virtual crystal weights 
   VCA    =   1.00
   NELECT =       8.0000    total number of electrons
   NUPDOWN=      -1.0000    fix difference up-down

 DOS related values:
   EMIN   =  10.00;   EMAX   =-10.00  energy-range for DOS
   EFERMI =   0.00
   ISMEAR =     0;   SIGMA  =   0.01  broadening in eV -4-tet -1-fermi 0-gaus

 Electronic relaxation 2 (details)
   IALGO  =     38    algorithm
   LDIAG  =      T    sub-space diagonalisation (order eigenvalues)
   LSUBROT=      F    optimize rotation matrix (better conditioning)
   TURBO    =      0    0=normal 1=particle mesh
   IRESTART =      0    0=no restart 2=restart with 2 vectors
   NREBOOT  =      0    no. of reboots
   NMIN     =      0    reboot dimension
   EREF     =   0.00    reference energy to select bands
   IMIX   =      1    mixing-type and parameters
     AMIX     =   0.40;   BMIX     =  1.00
     AMIX_MAG =   1.60;   BMIX_MAG =  1.00
     AMIN     =   0.10
     WC   =   100.;   INIMIX=   1;  MIXPRE=   1;  MAXMIX= -45

 Intra band minimization:
   WEIMIN = 0.0000     energy-eigenvalue tresh-hold
   EBREAK =  0.16E-09  absolut break condition
   DEPER  =   0.30     relativ break condition  

   TIME   =   0.40     timestep for ELM

  volume/ion in A,a.u.               =      20.01       135.05
  Fermi-wavevector in a.u.,A,eV,Ry     =   0.957176  1.808800 12.465458  0.916185
  Thomas-Fermi vector in A             =   2.086170
 
 Write flags
   LWAVE        =      T    write WAVECAR
   LDOWNSAMPLE  =      F    k-point downsampling of WAVECAR
   LCHARG       =      T    write CHGCAR
   LVTOT        =      F    write LOCPOT, total local potential
   LVHAR        =      F    write LOCPOT, Hartree potential only
   LELF         =      F    write electronic localiz. function (ELF)
   LORBIT       =      0    0 simple, 1 ext, 2 COOP (PROOUT), +10 PAW based schemes


 Dipole corrections
   LMONO  =      F    monopole corrections only (constant potential shift)
   LDIPOL =      F    correct potential (dipole corrections)
   IDIPOL =      0    1-x, 2-y, 3-z, 4-all directions 
   EPSILON=  1.0000000 bulk dielectric constant

 Exchange correlation treatment:
   GGA     =    --    GGA type
   LEXCH   =     8    internal setting for exchange type
   VOSKOWN=      0    Vosko Wilk Nusair interpolation
   EXXOEP  =     0    0=HF, 1=EXX-LHF (local Hartree Fock) 2=EXX OEP
   LHFCALC =     T    Hartree Fock is set to
   LSYMGRAD=     F    symmetrize gradient (conserves proper symmetry)
   PRECFOCK=normal    Normal, Fast or Accurate (Low or Medium for compatibility)
   LRHFCALC=     F    long range Hartree Fock
   LRSCOR  =     F    long range correlation only (use DFT for short range part)
   LTHOMAS =     F    Thomas Fermi screening in HF
   LMODELHF=     T    short range full HF, long range fraction AEXX
   ENCUT4O =  -1.0   cutoff for four orbital integrals eV
   LMAXFOCK=     4    L truncation for augmentation on plane wave grid
   LMAXFOCKAE=   4    L truncation for all-electron charge restoration on plane wave grid
   NMAXFOCKAE=   1    number of basis functions for all-electron charge restoration
   LFOCKAEDFT=     F  apply the AE augmentation even for DFT
   NKREDX  =     1    reduce k-point grid by
   NKREDY  =     1    reduce k-point grid by
   NKREDZ  =     1    reduce k-point grid by
   SHIFTRED=     F    shift reduced grid of Gamma
   HFKIDENT=     F    idential grid for each k-point
   ODDONLY =     F    use only odd q-grid points
   EVENONLY=     F    use only even q-grid points
   HFALPHA =   -1.0000 decay constant for conv. correction
   MCALPHA =    0.0000 extent of test-charge in conv. correction in multipole expansion
   AEXX    =    1.0000 exact exchange contribution
   HFSCREEN=    0.0000 screening length (either q_TF or 0.3 A-1)
   HFSCREENC=   1.2600 screening length for correlation (either q_TF or 0.3 A-1)
   HFRCUT  =    0.0000 spherical cutoff for potential kernel
   ALDAX   =    0.0000 LDA exchange part
   AGGAX   =    0.0000 GGA exchange part
   ALDAC   =    0.0000 LDA correlation
   AGGAC   =    0.0000 GGA correlation
   ENCUTFOCK=  -1.0 apply spherical cutoff to Coloumb kernel
   NBANDSGWLOW=     1    first orbital included in HF term
   NBLOCK_FOCK=    64    blocking factor in FOCK_ACC
 Linear response parameters
   LEPSILON=     F    determine dielectric tensor
   LRPA    =     F    only Hartree local field effects (RPA)
   LNABLA  =     F    use nabla operator in PAW spheres
   LVEL    =     F    velocity operator in full k-point grid
   LINTERFAST=   F  fast interpolation
   KINTER  =     0    interpolate to denser k-point grid
   CSHIFT  =0.1000    complex shift for real part using Kramers Kronig
   OMEGAMAX=  20.0    maximum frequency
   DEG_THRESHOLD= 0.2000000E-02 threshold for treating states as degnerate
   RTIME   =   -0.100 relaxation time in fs
  (WPLASMAI=    0.000 imaginary part of plasma frequency in eV, 0.658/RTIME)
   DFIELD  = 0.0000000 0.0000000 0.0000000 field for delta impulse in time
 
 Orbital magnetization related:
   ORBITALMAG=     F  switch on orbital magnetization
   LCHIMAG   =     F  perturbation theory with respect to B field
   DQ        =  0.001000  dq finite difference perturbation B field
   LLRAUG    =     F  two centre corrections for induced B field

 Response functions by sum over occupied states:
   ALGO    =TDHF       execute GW part
   LFXC    =     F    include DFT xc kernel in TD-HF and W
   LADDER  =     T    particle hole ladder diagrams for BSE/TD-HF and W (Nano-quanta)
   LRPAFORCE=     F   calculate RPA forces
   LHARTREE=     T    include Hartree terms (bubbles-RPA) in BSE/TD-HF
   IBSE    =     0    BSE modus: 0 exact, 1 time-evolution (store matrix), 10 time-evolution (implicit)
   KPOINT  =    -1   0   0   0    k-point index at which BSE equation is solved (and G at which response is eval.)
   LTRIPLET=     F    triplet instead of singlet excitation (BSE only)
   LRSRPA  =     F    range separated RPA (total - short) in ACFDT
   LTCTE   =     F    use test-charge test-electron dielectric function
   LTETE   =     F    use test-electron test-electron dielectric function
   LFXCEPS =     F    determine f_xc=epsilon-1/Xi Sharma and Gross kernel
   LFXHEG  =     F    model exchange using f_x(G,k_F) from free electron gas
   NATURALO=     2    0 natural orbitals, 1 only virtual, 2 only occupied-virtual rotation
   L2ORDER =     F    2nd order terms only
   LMP2LT   =     F    use LT MP2
   LUSEW   =     F    use screened W from WXXXX.tmp files instead of (screened) HF kernel
   ENCUTGW = 150.0    cutoff for response function in eV
   ENCUTGWSOFT = 150.0 soft cutoff for Coulomb kernel in GW response function in eV
   ENCUTLF =  -1.0    cutoff for local field effects
   LMAXMP2 =    -1    maximum L for one center terms
   SCISSOR =   0.7    scissor correction
   NOMEGA  =     0    number of frequencies
   NOMEGAR =     0    number of frequencies along real axis
   NBANDSGW=    -1    number of bands for which selfenergy shift is calculated
   NBANDSGWLOW=     1 lowest band included in GW (to exclude core correlation)
   NBANDSO =     4    number of bands for electron-hole treatment (occupied)
   NBANDSV =     8    number of bands for electron-hole treatment (virtual)
   NELM    =     1    number of iterations in solving QP/BSE equation
   NELMHF  =     1    number of iterations in the inner HF iteration
   DIM     =     3    dimensionality of system (0=0D molecules, 3=3D)
   ANTIRES =     0    antiresonant part (0) no TDA (1) w=0 exact (2) accurate
   OMEGAMAX=  20.0    maximum frequency
   OMEGAMIN= -30.000    minimum frequency
   OMEGATL =-200.0    maximum frequency of tail
   OMEGAGRID=   140    grid type (0 default)
   CSHIFT  =-0.100    complex shift used in evaluation of response functions
   SELFENERGY=   F    calculate selfenergy instead of QP shifts
   LSPECTRAL =   F    use spectral functions                   
   LSPECTRALGW=   F   use spectral functions to calculate int dz G(w-z) W(z) (more accurate)
   LSINGLES  =   F   calculate the singles contribution to the correlation energy
   LFERMIGW  =   F   update Fermi-energy in the Greens function

   ODDONLYGW =   F    avoid all even points for polarizability 
   EVENONLYGW=   F    avoid all odd  points for polarizability 
   NKREDLFX  =   1   NKREDLFY  =   1   NKREDLFZ  =   1

   TELESCOPE =   0   use telescope k-point sampling
   TAUPAR    =   1   number of TAU groups used in imaginary time calculation
   OMEGAPAR  =  -1   number of OMEGA groups used in imaginary frequency calculation



--------------------------------------------------------------------------------------------------------


 Static calculation
 charge density and potential will be updated during run
 non-spin polarized calculation
 Variant of blocked Davidson
 Davidson routine will perform the subspace rotation
 perform sub-space diagonalisation
    after iterative eigenvector-optimisation
 Kerker-like  mixing scheme
 using additional bands           12
 reciprocal scheme for non local part
 use partial core corrections
 calculate Harris-corrections to forces 
   (improved forces if not selfconsistent)
 use gradient corrections 
 use of overlap-Matrix (Vanderbilt PP)
 Gauss-broadening in eV      SIGMA  =   0.01


--------------------------------------------------------------------------------------------------------


  energy-cutoff  :      250.00
  volume of cell :       40.03
      direct lattice vectors                 reciprocal lattice vectors
     2.715000000  2.715000000  0.000000000     0.184162063  0.184162063 -0.184162063
     0.000000000  2.715000000  2.715000000    -0.184162063  0.184162063  0.184162063
     2.715000000  0.000000000  2.715000000     0.184162063 -0.184162063  0.184162063

  length of vectors
     3.839589822  3.839589822  3.839589822     0.318978049  0.318978049  0.318978049


 
 old parameters found on file WAVECAR:
  energy-cutoff  :      250.00
  volume of cell :       40.03
      direct lattice vectors                 reciprocal lattice vectors
     2.715000000  2.715000000  0.000000000     0.184162063  0.184162063 -0.184162063
     0.000000000  2.715000000  2.715000000    -0.184162063  0.184162063  0.184162063
     2.715000000  0.000000000  2.715000000     0.184162063 -0.184162063  0.184162063

  length of vectors

 
 k-points in units of 2pi/SCALE and weight: Automatically generated mesh            
   0.00000000  0.00000000  0.00000000       0.016
   0.25000000  0.25000000 -0.25000000       0.125
   0.50000000  0.50000000 -0.50000000       0.062
   0.00000000  0.50000000  0.00000000       0.094
   0.25000000  0.75000000 -0.25000000       0.375
  -0.50000000 -0.00000000  0.50000000       0.188
   0.00000000  1.00000000  0.00000000       0.047
  -0.50000000  0.00000000  1.00000000       0.094
 
 k-points in reciprocal lattice and weights: Automatically generated mesh            
   0.00000000  0.00000000  0.00000000       0.016
   0.25000000 -0.00000000  0.00000000       0.125
   0.50000000 -0.00000000  0.00000000       0.062
   0.25000000  0.25000000  0.00000000       0.094
   0.50000000  0.25000000  0.00000000       0.375
  -0.25000000  0.25000000  0.00000000       0.188
   0.50000000  0.50000000  0.00000000       0.047
  -0.25000000  0.50000000  0.25000000       0.094
 
 position of ions in fractional coordinates (direct lattice) 
   0.00000000  0.00000000  0.00000000
   0.25000000  0.25000000  0.25000000
 
 position of ions in cartesian coordinates  (Angst):
   0.00000000  0.00000000  0.00000000
   1.35750000  1.35750000  1.35750000
 


--------------------------------------------------------------------------------------------------------


 k-point  1 :   0.0000 0.0000 0.0000  plane waves:     339
 k-point  2 :   0.2500-0.0000 0.0000  plane waves:     356
 k-point  3 :   0.5000-0.0000 0.0000  plane waves:     368
 k-point  4 :   0.2500 0.2500 0.0000  plane waves:     351
 k-point  5 :   0.5000 0.2500 0.0000  plane waves:     362
 k-point  6 :  -0.2500 0.2500 0.0000  plane waves:     363
 k-point  7 :   0.5000 0.5000 0.0000  plane waves:     360
 k-point  8 :  -0.2500 0.5000 0.2500  plane waves:     360

 maximum and minimum number of plane-waves per node :       368      339

 maximum number of plane-waves:       368
 maximum index in each direction: 
   IXMAX=    5   IYMAX=    4   IZMAX=    4
   IXMIN=   -5   IYMIN=   -5   IZMIN=   -5


 serial   3D FFT for wavefunctions
 parallel 3D FFT for charge:
    minimum data exchange during FFTs selected (reduces bandwidth)

 
 Radii for the augmentation spheres in the non-local exchange
 for species   1 augmentation radius   0.989 (default was   0.989)
 error exchange integrals (PW-AE in eV) (mean, max) 0.149 0.447 density error[0,qmax] 0.0091
 Maximum index for augmentation-charges in exchange          381
  SETUP_FOCK is finished

 total amount of memory used by VASP MPI-rank0    30760. kBytes
=======================================================================

   base      :      30000. kBytes
   nonl-proj :        200. kBytes
   fftplans  :         93. kBytes
   grid      :        270. kBytes
   one-center:          6. kBytes
   HF        :          9. kBytes
   nonlr-proj:        133. kBytes
   wavefun   :         49. kBytes
 
     INWAV:  cpu time    0.0042: real time    0.0043
 charge density for first step will be calculated from the start-wavefunctions


--------------------------------------------------------------------------------------------------------


 Maximum index for augmentation-charges          253 (set IRDMAX)


--------------------------------------------------------------------------------------------------------


 initial charge from wavefunction
    FEWALD:  cpu time    0.0001: real time    0.0001

 The Fermi energy was updated, please check that it is located mid-gap
 values below the HOMO (VB) or above the LUMO (CB) will cause erroneous energies
 E-fermi :   6.2348

 Response functions by sum over occupied states:
 ===============================================
   NOMEGA  =     0    number of frequencies
   NOMEGAR =     0    number of frequencies along real axis
   OMEGAMAX=  20.00   maximum frequency
   OMEGAMIN=   1.39   minimum frequency
   OMEGATL = 174.57   maximum frequency of tail
   CSHIFT  =  0.100   complex shift used in evaluation of response functions


 Energies iw= 
 ============


 Maximum error of frequency grid:  0.0000000E+00
 

IMPORTANT INFORMATION: All symmetrisations will be switched off!
NOSYMM: (Re-)initialisation of all symmetry stuff for point group C_1.

 
 KPOINTS: Automatically generated mesh            

Automatic generation of k-mesh.
Space group operators:
 irot       det(A)        alpha          n_x          n_y          n_z        tau_x        tau_y        tau_z
    1     1.000000     0.000001     1.000000     0.000000     0.000000     0.000000     0.000000     0.000000
 
 Subroutine IBZKPT returns following result:
 ===========================================
 
 Found     64 irreducible k-points:
 
 Following reciprocal coordinates:
            Coordinates               Weight
  0.000000  0.000000  0.000000      1.000000
  0.250000 -0.000000  0.000000      1.000000
  0.500000 -0.000000  0.000000      1.000000
 -0.250000  0.000000 -0.000000      1.000000
  0.000000  0.250000  0.000000      1.000000
  0.250000  0.250000  0.000000      1.000000
  0.500000  0.250000  0.000000      1.000000
 -0.250000  0.250000  0.000000      1.000000
  0.000000  0.500000  0.000000      1.000000
  0.250000  0.500000  0.000000      1.000000
  0.500000  0.500000  0.000000      1.000000
 -0.250000  0.500000  0.000000      1.000000
 -0.000000 -0.250000 -0.000000      1.000000
  0.250000 -0.250000 -0.000000      1.000000
  0.500000 -0.250000 -0.000000      1.000000
 -0.250000 -0.250000 -0.000000      1.000000
  0.000000  0.000000  0.250000      1.000000
  0.250000  0.000000  0.250000      1.000000
  0.500000  0.000000  0.250000      1.000000
 -0.250000  0.000000  0.250000      1.000000
  0.000000  0.250000  0.250000      1.000000
  0.250000  0.250000  0.250000      1.000000
  0.500000  0.250000  0.250000      1.000000
 -0.250000  0.250000  0.250000      1.000000
  0.000000  0.500000  0.250000      1.000000
  0.250000  0.500000  0.250000      1.000000
  0.500000  0.500000  0.250000      1.000000
 -0.250000  0.500000  0.250000      1.000000
  0.000000 -0.250000  0.250000      1.000000
  0.250000 -0.250000  0.250000      1.000000
  0.500000 -0.250000  0.250000      1.000000
 -0.250000 -0.250000  0.250000      1.000000
  0.000000  0.000000  0.500000      1.000000
  0.250000  0.000000  0.500000      1.000000
  0.500000  0.000000  0.500000      1.000000
 -0.250000  0.000000  0.500000      1.000000
  0.000000  0.250000  0.500000      1.000000
  0.250000  0.250000  0.500000      1.000000
  0.500000  0.250000  0.500000      1.000000
 -0.250000  0.250000  0.500000      1.000000
  0.000000  0.500000  0.500000      1.000000
  0.250000  0.500000  0.500000      1.000000
  0.500000  0.500000  0.500000      1.000000
 -0.250000  0.500000  0.500000      1.000000
  0.000000 -0.250000  0.500000      1.000000
  0.250000 -0.250000  0.500000      1.000000
  0.500000 -0.250000  0.500000      1.000000
 -0.250000 -0.250000  0.500000      1.000000
 -0.000000 -0.000000 -0.250000      1.000000
  0.250000 -0.000000 -0.250000      1.000000
  0.500000 -0.000000 -0.250000      1.000000
 -0.250000 -0.000000 -0.250000      1.000000
 -0.000000  0.250000 -0.250000      1.000000
  0.250000  0.250000 -0.250000      1.000000
  0.500000  0.250000 -0.250000      1.000000
 -0.250000  0.250000 -0.250000      1.000000
 -0.000000  0.500000 -0.250000      1.000000
  0.250000  0.500000 -0.250000      1.000000
  0.500000  0.500000 -0.250000      1.000000
 -0.250000  0.500000 -0.250000      1.000000
 -0.000000 -0.250000 -0.250000      1.000000
  0.250000 -0.250000 -0.250000      1.000000
  0.500000 -0.250000 -0.250000      1.000000
 -0.250000 -0.250000 -0.250000      1.000000
 
 Following cartesian coordinates:
            Coordinates               Weight
  0.000000  0.000000  0.000000      1.000000
  0.250000  0.250000 -0.250000      1.000000
  0.500000  0.500000 -0.500000      1.000000
 -0.250000 -0.250000  0.250000      1.000000
 -0.250000  0.250000  0.250000      1.000000
  0.000000  0.500000  0.000000      1.000000
  0.250000  0.750000 -0.250000      1.000000
 -0.500000 -0.000000  0.500000      1.000000
 -0.500000  0.500000  0.500000      1.000000
 -0.250000  0.750000  0.250000      1.000000
  0.000000  1.000000  0.000000      1.000000
 -0.750000  0.250000  0.750000      1.000000
  0.250000 -0.250000 -0.250000      1.000000
  0.500000  0.000000 -0.500000      1.000000
  0.750000  0.250000 -0.750000      1.000000
 -0.000000 -0.500000 -0.000000      1.000000
  0.250000 -0.250000  0.250000      1.000000
  0.500000  0.000000  0.000000      1.000000
  0.750000  0.250000 -0.250000      1.000000
 -0.000000 -0.500000  0.500000      1.000000
  0.000000 -0.000000  0.500000      1.000000
  0.250000  0.250000  0.250000      1.000000
  0.500000  0.500000  0.000000      1.000000
 -0.250000 -0.250000  0.750000      1.000000
 -0.250000  0.250000  0.750000      1.000000
 -0.000000  0.500000  0.500000      1.000000
  0.250000  0.750000  0.250000      1.000000
 -0.500000  0.000000  1.000000      1.000000
  0.500000 -0.500000  0.000000      1.000000
  0.750000 -0.250000 -0.250000      1.000000
  1.000000  0.000000 -0.500000      1.000000
  0.250000 -0.750000  0.250000      1.000000
  0.500000 -0.500000  0.500000      1.000000
  0.750000 -0.250000  0.250000      1.000000
  1.000000  0.000000  0.000000      1.000000
  0.250000 -0.750000  0.750000      1.000000
  0.250000 -0.250000  0.750000      1.000000
  0.500000  0.000000  0.500000      1.000000
  0.750000  0.250000  0.250000      1.000000
  0.000000 -0.500000  1.000000      1.000000
  0.000000 -0.000000  1.000000      1.000000
  0.250000  0.250000  0.750000      1.000000
  0.500000  0.500000  0.500000      1.000000
 -0.250000 -0.250000  1.250000      1.000000
  0.750000 -0.750000  0.250000      1.000000
  1.000000 -0.500000 -0.000000      1.000000
  1.250000 -0.250000 -0.250000      1.000000
  0.500000 -1.000000  0.500000      1.000000
 -0.250000  0.250000 -0.250000      1.000000
  0.000000  0.500000 -0.500000      1.000000
  0.250000  0.750000 -0.750000      1.000000
 -0.500000 -0.000000 -0.000000      1.000000
 -0.500000  0.500000 -0.000000      1.000000
 -0.250000  0.750000 -0.250000      1.000000
  0.000000  1.000000 -0.500000      1.000000
 -0.750000  0.250000  0.250000      1.000000
 -0.750000  0.750000  0.250000      1.000000
 -0.500000  1.000000  0.000000      1.000000
 -0.250000  1.250000 -0.250000      1.000000
 -1.000000  0.500000  0.500000      1.000000
 -0.000000  0.000000 -0.500000      1.000000
  0.250000  0.250000 -0.750000      1.000000
  0.500000  0.500000 -1.000000      1.000000
 -0.250000 -0.250000 -0.250000      1.000000
 
 files read and symmetry switched off, memory is now:
 total amount of memory used by VASP MPI-rank0    32423. kBytes
=======================================================================

   base      :      30000. kBytes
   nonl-proj :       1519. kBytes
   fftplans  :         93. kBytes
   grid      :        270. kBytes
   one-center:          6. kBytes
   HF        :          9. kBytes
   nonlr-proj:        133. kBytes
   wavefun   :        393. kBytes
 
 Basis sets for responsefunctions:
 =================================
 k-point  1 :   0.0000 0.0000 0.0000  plane waves:     169
 k-point  2 :   0.2500-0.0000 0.0000  plane waves:     162
 k-point  3 :   0.5000-0.0000 0.0000  plane waves:     168
 k-point  4 :   0.2500 0.2500 0.0000  plane waves:     165
 k-point  5 :   0.5000 0.2500 0.0000  plane waves:     171
 k-point  6 :  -0.2500 0.2500 0.0000  plane waves:     164
 k-point  7 :   0.5000 0.5000 0.0000  plane waves:     174
 k-point  8 :  -0.2500 0.5000 0.2500  plane waves:     176
 k-point  9 :  -0.2500 0.0000-0.0000  plane waves:     162
 k-point 10 :   0.0000 0.2500-0.0000  plane waves:     162
 k-point 11 :   0.0000 0.5000-0.0000  plane waves:     168
 k-point 12 :   0.2500 0.5000-0.0000  plane waves:     171
 k-point 13 :  -0.2500-0.5000 0.0000  plane waves:     171
 k-point 14 :  -0.0000-0.2500 0.0000  plane waves:     162
 k-point 15 :   0.2500-0.2500-0.0000  plane waves:     164
 k-point 16 :  -0.5000-0.2500-0.0000  plane waves:     171
 k-point 17 :  -0.2500-0.2500 0.0000  plane waves:     165
 k-point 18 :  -0.0000 0.0000 0.2500  plane waves:     162
 k-point 19 :   0.2500 0.0000 0.2500  plane waves:     165
 k-point 20 :   0.5000-0.0000 0.2500  plane waves:     171
 k-point 21 :  -0.2500-0.0000 0.2500  plane waves:     164
 k-point 22 :   0.0000 0.2500 0.2500  plane waves:     165
 k-point 23 :   0.2500 0.2500 0.2500  plane waves:     162
 k-point 24 :   0.5000 0.2500 0.2500  plane waves:     164
 k-point 25 :  -0.2500 0.2500 0.2500  plane waves:     171
 k-point 26 :   0.0000 0.5000 0.2500  plane waves:     171
 k-point 27 :   0.2500 0.5000 0.2500  plane waves:     164
 k-point 28 :   0.5000 0.5000 0.2500  plane waves:     171
 k-point 29 :   0.0000-0.2500 0.2500  plane waves:     164
 k-point 30 :   0.2500-0.2500 0.2500  plane waves:     171
 k-point 31 :  -0.5000-0.2500-0.7500  plane waves:     176
 k-point 32 :  -0.2500-0.2500 0.2500  plane waves:     171
 k-point 33 :  -0.0000 0.0000 0.5000  plane waves:     168
 k-point 34 :   0.2500 0.0000 0.5000  plane waves:     171
 k-point 35 :   0.5000 0.0000 0.5000  plane waves:     174
 k-point 36 :  -0.2500-0.0000-0.5000  plane waves:     171
 k-point 37 :  -0.0000 0.2500 0.5000  plane waves:     171
 k-point 38 :   0.2500 0.2500 0.5000  plane waves:     164
 k-point 39 :   0.5000 0.2500 0.5000  plane waves:     171
 k-point 40 :  -0.2500 0.2500-0.5000  plane waves:     176
 k-point 41 :   0.0000 0.5000 0.5000  plane waves:     174
 k-point 42 :   0.2500 0.5000 0.5000  plane waves:     171
 k-point 43 :  -0.5000-0.5000-0.5000  plane waves:     168
 k-point 44 :  -0.2500-0.5000-0.5000  plane waves:     171
 k-point 45 :   0.0000-0.2500-0.5000  plane waves:     171
 k-point 46 :   0.2500-0.2500 0.5000  plane waves:     176
 k-point 47 :  -0.5000-0.2500-0.5000  plane waves:     171
 k-point 48 :  -0.2500-0.2500-0.5000  plane waves:     164
 k-point 49 :   0.0000-0.0000-0.2500  plane waves:     162
 k-point 50 :   0.2500 0.0000-0.2500  plane waves:     164
 k-point 51 :  -0.5000 0.0000-0.2500  plane waves:     171
 k-point 52 :  -0.2500 0.0000-0.2500  plane waves:     165
 k-point 53 :  -0.0000 0.2500-0.2500  plane waves:     164
 k-point 54 :   0.2500 0.2500-0.2500  plane waves:     171
 k-point 55 :   0.5000 0.2500-0.2500  plane waves:     176
 k-point 56 :  -0.2500 0.2500-0.2500  plane waves:     171
 k-point 57 :  -0.0000-0.5000-0.2500  plane waves:     171
 k-point 58 :   0.2500-0.5000-0.2500  plane waves:     176
 k-point 59 :  -0.5000-0.5000-0.2500  plane waves:     171
 k-point 60 :  -0.2500-0.5000-0.2500  plane waves:     164
 k-point 61 :   0.0000-0.2500-0.2500  plane waves:     165
 k-point 62 :   0.2500-0.2500-0.2500  plane waves:     171
 k-point 63 :  -0.5000-0.2500-0.2500  plane waves:     164
 k-point 64 :  -0.2500-0.2500-0.2500  plane waves:     162

 maximum and minimum number of plane-waves per node :       176      162

 maximum number of plane-waves:       176
 maximum index in each direction: 
   IXMAX=    4   IYMAX=    4   IZMAX=    4
   IXMIN=   -4   IYMIN=   -4   IZMIN=   -4

 exchange correlation table for  LEXCH =        8
   RHO(1)=    0.500       N(1)  =     2000
   RHO(2)=  100.500       N(2)  =     4000
NQ=   1    0.0000    0.0000    0.0000, 
 parallelization over k-points

 Bands included in the BSE
 VB(min)=    1  VB(max)=    4
 CB(min)=    5  CB(max)=   12

 electron-hole pairs beyond OMEGAMAX are removed OMEGAMAX=  20.00000
 parameters for screened Coulomb W: AEXX=     0.0880000 HFSCREEN=     1.2600000
 BSE attempting allocation of   0.053 Gbyte  rank=   1826

 total amount of memory used by VASP MPI-rank0    85771. kBytes
=======================================================================

   base      :      30000. kBytes
   nonl-proj :       1519. kBytes
   fftplans  :         93. kBytes
   grid      :        270. kBytes
   one-center:          6. kBytes
   HF        :          9. kBytes
   nonlr-proj:        133. kBytes
   wavefun   :        393. kBytes
   response  :          0. kBytes
   bse       :      53348. kBytes
 
 BLAS level 3 operations / number of FFT's:
 number of FFTs for wave wavefunctions                768. fft
 number of operations in four-orbital integrals       5.75 Gflops,    432640. fft
    BSESET:  cpu time    2.1925: real time    2.2047
    BSESUM:  cpu time    0.1338: real time    0.1348

 total amount of memory used by VASP MPI-rank0    85362. kBytes
=======================================================================

   base      :      30000. kBytes
   nonl-proj :       1519. kBytes
   fftplans  :         93. kBytes
   grid      :        270. kBytes
   one-center:          6. kBytes
   HF        :          9. kBytes
   nonlr-proj:        133. kBytes
   wavefun   :          0. kBytes
   response  :          0. kBytes
   bse       :      53332. kBytes
 
   BSEDIAG:  cpu time    9.9460: real time    9.9981
   BSEOSZI:  cpu time    0.3704: real time    0.3725
