 vasp.5.4.4.18Apr17-6-g9f103f2a35 (build Oct 03 2021 14:18:19) complex          
  
 executed on             LinuxGNU date 2022.01.13  20:42:40
 running on   16 total cores
 distrk:  each k-point on    8 cores,    2 groups
 distr:  one band on NCORES_PER_BAND=   1 cores,    8 groups


--------------------------------------------------------------------------------------------------------


 INCAR:
 POTCAR:    PAW_PBE Si 05Jan2001                  

 ----------------------------------------------------------------------------- 
|                                                                             |
|           W    W    AA    RRRRR   N    N  II  N    N   GGGG   !!!           |
|           W    W   A  A   R    R  NN   N  II  NN   N  G    G  !!!           |
|           W    W  A    A  R    R  N N  N  II  N N  N  G       !!!           |
|           W WW W  AAAAAA  RRRRR   N  N N  II  N  N N  G  GGG   !            |
|           WW  WW  A    A  R   R   N   NN  II  N   NN  G    G                |
|           W    W  A    A  R    R  N    N  II  N    N   GGGG   !!!           |
|                                                                             |
|      For optimal performance we recommend to set                            |
|        NCORE= 4 - approx SQRT( number of cores)                             |
|      NCORE specifies how many cores store one orbital (NPAR=cpu/NCORE).     |
|      This setting can  greatly improve the performance of VASP for DFT.     |
|      The default,   NCORE=1            might be grossly inefficient         |
|      on modern multi-core architectures or massively parallel machines.     |
|      Do your own testing !!!!                                               |
|      Unfortunately you need to use the default for GW and RPA calculations. |
|      (for HF NCORE is supported but not extensively tested yet)             |
|                                                                             |
 ----------------------------------------------------------------------------- 


 ----------------------------------------------------------------------------- 
|                                                                             |
|           W    W    AA    RRRRR   N    N  II  N    N   GGGG   !!!           |
|           W    W   A  A   R    R  NN   N  II  NN   N  G    G  !!!           |
|           W    W  A    A  R    R  N N  N  II  N N  N  G       !!!           |
|           W WW W  AAAAAA  RRRRR   N  N N  II  N  N N  G  GGG   !            |
|           WW  WW  A    A  R   R   N   NN  II  N   NN  G    G                |
|           W    W  A    A  R    R  N    N  II  N    N   GGGG   !!!           |
|                                                                             |
|      You have enabled k-point parallelism (KPAR>1).                         |
|      This developmental code was originally  written by Paul Kent at ORNL,  |
|      and carefully double checked in Vienna.                                |
|      GW as well as linear response parallelism added by Martijn Marsman     |
|      and Georg Kresse.                                                      |
|      Carefully verify results versus KPAR=1.                                |
|      Report problems to Paul Kent and Vienna.                               |
|                                                                             |
 ----------------------------------------------------------------------------- 

 POTCAR:    PAW_PBE Si 05Jan2001                  
   VRHFIN =Si: s2p2                                                             
   LEXCH  = PE                                                                  
   EATOM  =   103.0669 eV,    7.5752 Ry                                         
                                                                                
   TITEL  = PAW_PBE Si 05Jan2001                                                
   LULTRA =        F    use ultrasoft PP ?                                      
   IUNSCR =        1    unscreen: 0-lin 1-nonlin 2-no                           
   RPACOR =    1.500    partial core radius                                     
   POMASS =   28.085; ZVAL   =    4.000    mass and valenz                      
   RCORE  =    1.900    outmost cutoff radius                                   
   RWIGS  =    2.480; RWIGS  =    1.312    wigner-seitz radius (au A)           
   ENMAX  =  245.345; ENMIN  =  184.009 eV                                      
   ICORE  =        2    local potential                                         
   LCOR   =        T    correct aug charges                                     
   LPAW   =        T    paw PP                                                  
   EAUG   =  322.069                                                            
   DEXC   =    0.000                                                            
   RMAX   =    1.950    core radius for proj-oper                               
   RAUG   =    1.300    factor for augmentation sphere                          
   RDEP   =    1.993    radius for radial grids                                 
   RDEPT  =    1.837    core radius for aug-charge                              
                                                                                
   Atomic configuration                                                         
    6 entries                                                                   
     n  l   j            E        occ.                                          
     1  0  0.50     -1785.8828   2.0000                                         
     2  0  0.50      -139.4969   2.0000                                         
     2  1  1.50       -95.5546   6.0000                                         
     3  0  0.50       -10.8127   2.0000                                         
     3  1  0.50        -4.0811   2.0000                                         
     3  2  1.50        -4.0817   0.0000                                         
   Description                                                                  
     l       E           TYP  RCUT    TYP  RCUT                                 
     0    -10.8127223     23  1.900                                             
     0     -7.6451159     23  1.900                                             
     1     -4.0811372     23  1.900                                             
     1      2.4879257     23  1.900                                             
     2     -4.0817478      7  1.900                                             
  local pseudopotential read in
  partial core-charges read in
  partial kinetic energy density read in
  atomic valenz-charges read in
  non local Contribution for L=           0  read in
    real space projection operators read in
  non local Contribution for L=           0  read in
    real space projection operators read in
  non local Contribution for L=           1  read in
    real space projection operators read in
  non local Contribution for L=           1  read in
    real space projection operators read in
    PAW grid and wavefunctions read in
 
   number of l-projection  operators is LMAX  =           4
   number of lm-projection operators is LMMAX =           8
 
  PAW_PBE Si 05Jan2001                  :
 energy of atom  1       EATOM= -103.0669
 kinetic energy error for atom=    0.0052 (will be added to EATOM!!)
 
 
 POSCAR: Si                                      
  positions in cartesian coordinates
  No initial velocities read in
 exchange correlation table for  LEXCH =        8
   RHO(1)=    0.500       N(1)  =     2000
   RHO(2)=  100.500       N(2)  =     4000
 


--------------------------------------------------------------------------------------------------------


 ion  position               nearest neighbor table
   1  0.000  0.000  0.000-   2 2.35   2 2.35   2 2.35   2 2.35
   2  0.250  0.250  0.250-   1 2.35   1 2.35   1 2.35   1 2.35
 
  LATTYP: Found a face centered cubic cell.
 ALAT       =     5.4300000000
  
  Lattice vectors:
  
 A1 = (   2.7150000000,   2.7150000000,   0.0000000000)
 A2 = (   0.0000000000,   2.7150000000,   2.7150000000)
 A3 = (   2.7150000000,   0.0000000000,   2.7150000000)


Analysis of symmetry for initial positions (statically):
=====================================================================
 Subroutine PRICEL returns:
 Original cell was already a primitive cell.
 

 Routine SETGRP: Setting up the symmetry group for a 
 face centered cubic supercell.


 Subroutine GETGRP returns: Found 48 space group operations
 (whereof 24 operations were pure point group operations)
 out of a pool of 48 trial point group operations.


The static configuration has the point symmetry T_d .
 The point group associated with its full space group is O_h .


Analysis of symmetry for dynamics (positions and initial velocities):
=====================================================================
 Subroutine PRICEL returns:
 Original cell was already a primitive cell.
 

 Routine SETGRP: Setting up the symmetry group for a 
 face centered cubic supercell.


 Subroutine GETGRP returns: Found 48 space group operations
 (whereof 24 operations were pure point group operations)
 out of a pool of 48 trial point group operations.


The dynamic configuration has the point symmetry T_d .
 The point group associated with its full space group is O_h .


 Subroutine INISYM returns: Found 48 space group operations
 (whereof 24 operations are pure point group operations),
 and found     1 'primitive' translations

 
 
 KPOINTS: Automatically generated mesh            

Automatic generation of k-mesh.
Space group operators:
 irot       det(A)        alpha          n_x          n_y          n_z        tau_x        tau_y        tau_z
    1     1.000000     0.000001     1.000000     0.000000     0.000000     0.000000     0.000000     0.000000
    2     1.000000   120.000000    -0.577350    -0.577350    -0.577350     0.000000     0.000000     0.000000
    3     1.000000   120.000000     0.577350     0.577350     0.577350     0.000000     0.000000     0.000000
    4    -1.000000    90.000000    -0.000000    -1.000000    -0.000000     0.000000     0.000000     0.000000
    5    -1.000000   180.000000     0.707107     0.707107    -0.000000     0.000000     0.000000     0.000000
    6    -1.000000    90.000000     1.000000    -0.000000    -0.000000     0.000000     0.000000     0.000000
    7     1.000000   180.000000    -0.000000    -1.000000     0.000000     0.000000     0.000000     0.000000
    8     1.000000   120.000000     0.577350     0.577350    -0.577350     0.000000     0.000000     0.000000
    9     1.000000   120.000000     0.577350    -0.577350    -0.577350     0.000000     0.000000     0.000000
   10    -1.000000    90.000000     0.000000     1.000000     0.000000     0.000000     0.000000     0.000000
   11    -1.000000    90.000000     0.000000    -0.000000    -1.000000     0.000000     0.000000     0.000000
   12    -1.000000   180.000000    -0.000000    -0.707107    -0.707107     0.000000     0.000000     0.000000
   13     1.000000   120.000000    -0.577350     0.577350     0.577350     0.000000     0.000000     0.000000
   14     1.000000   120.000000    -0.577350     0.577350    -0.577350     0.000000     0.000000     0.000000
   15     1.000000   180.000000    -0.000000     0.000000    -1.000000     0.000000     0.000000     0.000000
   16    -1.000000    90.000000    -1.000000     0.000000     0.000000     0.000000     0.000000     0.000000
   17    -1.000000   180.000000     0.707107     0.000000     0.707107     0.000000     0.000000     0.000000
   18    -1.000000    90.000000     0.000000     0.000000     1.000000     0.000000     0.000000     0.000000
   19     1.000000   120.000000    -0.577350    -0.577350     0.577350     0.000000     0.000000     0.000000
   20     1.000000   180.000000     1.000000     0.000000     0.000000     0.000000     0.000000     0.000000
   21     1.000000   120.000000     0.577350    -0.577350     0.577350     0.000000     0.000000     0.000000
   22    -1.000000   180.000000    -0.707107     0.707107    -0.000000     0.000000     0.000000     0.000000
   23    -1.000000   180.000000     0.707107     0.000000    -0.707107     0.000000     0.000000     0.000000
   24    -1.000000   180.000000     0.000000     0.707107    -0.707107     0.000000     0.000000     0.000000
   25    -1.000000     0.000001     1.000000     0.000000     0.000000     0.250000     0.250000     0.250000
   26    -1.000000   120.000000    -0.577350    -0.577350    -0.577350     0.250000     0.250000     0.250000
   27    -1.000000   120.000000     0.577350     0.577350     0.577350     0.250000     0.250000     0.250000
   28     1.000000    90.000000    -0.000000    -1.000000    -0.000000     0.250000     0.250000     0.250000
   29     1.000000   180.000000     0.707107     0.707107    -0.000000     0.250000     0.250000     0.250000
   30     1.000000    90.000000     1.000000    -0.000000    -0.000000     0.250000     0.250000     0.250000
   31    -1.000000   180.000000    -0.000000    -1.000000     0.000000     0.250000     0.250000     0.250000
   32    -1.000000   120.000000     0.577350     0.577350    -0.577350     0.250000     0.250000     0.250000
   33    -1.000000   120.000000     0.577350    -0.577350    -0.577350     0.250000     0.250000     0.250000
   34     1.000000    90.000000     0.000000     1.000000     0.000000     0.250000     0.250000     0.250000
   35     1.000000    90.000000     0.000000    -0.000000    -1.000000     0.250000     0.250000     0.250000
   36     1.000000   180.000000    -0.000000    -0.707107    -0.707107     0.250000     0.250000     0.250000
   37    -1.000000   120.000000    -0.577350     0.577350     0.577350     0.250000     0.250000     0.250000
   38    -1.000000   120.000000    -0.577350     0.577350    -0.577350     0.250000     0.250000     0.250000
   39    -1.000000   180.000000    -0.000000     0.000000    -1.000000     0.250000     0.250000     0.250000
   40     1.000000    90.000000    -1.000000     0.000000     0.000000     0.250000     0.250000     0.250000
   41     1.000000   180.000000     0.707107     0.000000     0.707107     0.250000     0.250000     0.250000
   42     1.000000    90.000000     0.000000     0.000000     1.000000     0.250000     0.250000     0.250000
   43    -1.000000   120.000000    -0.577350    -0.577350     0.577350     0.250000     0.250000     0.250000
   44    -1.000000   180.000000     1.000000     0.000000     0.000000     0.250000     0.250000     0.250000
   45    -1.000000   120.000000     0.577350    -0.577350     0.577350     0.250000     0.250000     0.250000
   46     1.000000   180.000000    -0.707107     0.707107    -0.000000     0.250000     0.250000     0.250000
   47     1.000000   180.000000     0.707107     0.000000    -0.707107     0.250000     0.250000     0.250000
   48     1.000000   180.000000     0.000000     0.707107    -0.707107     0.250000     0.250000     0.250000
 
 Subroutine IBZKPT returns following result:
 ===========================================
 
 Found      8 irreducible k-points:
 
 Following reciprocal coordinates:
            Coordinates               Weight
  0.000000  0.000000  0.000000      1.000000
  0.250000 -0.000000  0.000000      8.000000
  0.500000 -0.000000  0.000000      4.000000
  0.250000  0.250000  0.000000      6.000000
  0.500000  0.250000  0.000000     24.000000
 -0.250000  0.250000  0.000000     12.000000
  0.500000  0.500000  0.000000      3.000000
 -0.250000  0.500000  0.250000      6.000000
 
 Following cartesian coordinates:
            Coordinates               Weight
  0.000000  0.000000  0.000000      1.000000
  0.250000  0.250000 -0.250000      8.000000
  0.500000  0.500000 -0.500000      4.000000
  0.000000  0.500000  0.000000      6.000000
  0.250000  0.750000 -0.250000     24.000000
 -0.500000 -0.000000  0.500000     12.000000
  0.000000  1.000000  0.000000      3.000000
 -0.500000  0.000000  1.000000      6.000000
 
 
 Subroutine IBZKPT_HF returns following result:
 ==============================================
 
 Found     64 k-points in 1st BZ
 the following     64 k-points will be used (e.g. in the exchange kernel)
 Following reciprocal coordinates:   # in IRBZ
  0.000000  0.000000  0.000000    0.01562500   1 t-inv F
  0.250000 -0.000000  0.000000    0.01562500   2 t-inv F
  0.500000 -0.000000  0.000000    0.01562500   3 t-inv F
  0.250000  0.250000  0.000000    0.01562500   4 t-inv F
  0.500000  0.250000  0.000000    0.01562500   5 t-inv F
 -0.250000  0.250000  0.000000    0.01562500   6 t-inv F
  0.500000  0.500000  0.000000    0.01562500   7 t-inv F
 -0.250000  0.500000  0.250000    0.01562500   8 t-inv F
  0.000000  0.250000 -0.000000    0.01562500   2 t-inv F
 -0.000000  0.000000  0.250000    0.01562500   2 t-inv F
 -0.250000 -0.250000 -0.250000    0.01562500   2 t-inv F
 -0.250000  0.000000 -0.000000    0.01562500   2 t-inv F
 -0.000000 -0.250000  0.000000    0.01562500   2 t-inv F
  0.000000 -0.000000 -0.250000    0.01562500   2 t-inv F
  0.250000  0.250000  0.250000    0.01562500   2 t-inv F
  0.000000  0.500000 -0.000000    0.01562500   3 t-inv F
 -0.000000  0.000000  0.500000    0.01562500   3 t-inv F
 -0.500000 -0.500000 -0.500000    0.01562500   3 t-inv F
  0.000000  0.250000  0.250000    0.01562500   4 t-inv F
  0.250000  0.000000  0.250000    0.01562500   4 t-inv F
 -0.250000 -0.250000  0.000000    0.01562500   4 t-inv F
 -0.250000  0.000000 -0.250000    0.01562500   4 t-inv F
  0.000000 -0.250000 -0.250000    0.01562500   4 t-inv F
  0.000000  0.500000  0.250000    0.01562500   5 t-inv F
  0.250000  0.000000  0.500000    0.01562500   5 t-inv F
 -0.250000 -0.250000  0.250000    0.01562500   5 t-inv F
 -0.500000 -0.250000 -0.500000    0.01562500   5 t-inv F
  0.250000  0.500000 -0.000000    0.01562500   5 t-inv F
  0.250000 -0.250000 -0.250000    0.01562500   5 t-inv F
 -0.500000 -0.500000 -0.250000    0.01562500   5 t-inv F
 -0.000000  0.250000  0.500000    0.01562500   5 t-inv F
 -0.250000  0.250000 -0.250000    0.01562500   5 t-inv F
 -0.250000 -0.500000 -0.500000    0.01562500   5 t-inv F
  0.500000 -0.000000  0.250000    0.01562500   5 t-inv F
 -0.500000 -0.250000 -0.000000    0.01562500   5 t-inv F
 -0.000000 -0.500000 -0.250000    0.01562500   5 t-inv F
 -0.250000 -0.000000 -0.500000    0.01562500   5 t-inv F
  0.250000  0.250000 -0.250000    0.01562500   5 t-inv F
  0.500000  0.250000  0.500000    0.01562500   5 t-inv F
 -0.250000 -0.500000  0.000000    0.01562500   5 t-inv F
 -0.250000  0.250000  0.250000    0.01562500   5 t-inv F
  0.500000  0.500000  0.250000    0.01562500   5 t-inv F
  0.000000 -0.250000 -0.500000    0.01562500   5 t-inv F
  0.250000 -0.250000  0.250000    0.01562500   5 t-inv F
  0.250000  0.500000  0.500000    0.01562500   5 t-inv F
 -0.500000  0.000000 -0.250000    0.01562500   5 t-inv F
  0.000000 -0.250000  0.250000    0.01562500   6 t-inv F
  0.250000  0.000000 -0.250000    0.01562500   6 t-inv F
 -0.250000 -0.250000 -0.500000    0.01562500   6 t-inv F
  0.250000  0.500000  0.250000    0.01562500   6 t-inv F
  0.250000 -0.250000 -0.000000    0.01562500   6 t-inv F
 -0.500000 -0.250000 -0.250000    0.01562500   6 t-inv F
  0.250000  0.250000  0.500000    0.01562500   6 t-inv F
 -0.000000  0.250000 -0.250000    0.01562500   6 t-inv F
 -0.250000 -0.500000 -0.250000    0.01562500   6 t-inv F
  0.500000  0.250000  0.250000    0.01562500   6 t-inv F
 -0.250000 -0.000000  0.250000    0.01562500   6 t-inv F
  0.000000  0.500000  0.500000    0.01562500   7 t-inv F
  0.500000  0.000000  0.500000    0.01562500   7 t-inv F
  0.250000 -0.250000  0.500000    0.01562500   8 t-inv F
  0.500000  0.250000 -0.250000    0.01562500   8 t-inv F
 -0.500000 -0.250000 -0.750000    0.01562500   8 t-inv F
  0.250000 -0.500000 -0.250000    0.01562500   8 t-inv F
 -0.250000  0.250000 -0.500000    0.01562500   8 t-inv F


--------------------------------------------------------------------------------------------------------




 Dimension of arrays:
   k-points           NKPTS =      8   k-points in BZ     NKDIM =      8   number of bands    NBANDS=     16
   number of dos      NEDOS =    301   number of ions     NIONS =      2
   non local maximal  LDIM  =      4   non local SUM 2l+1 LMDIM =      8
   total plane-waves  NPLWV =   4096
   max r-space proj   IRMAX =      1   max aug-charges    IRDMAX=   3621
   dimension x,y,z NGX =    16 NGY =   16 NGZ =   16
   dimension x,y,z NGXF=    32 NGYF=   32 NGZF=   32
   support grid    NGXF=    32 NGYF=   32 NGZF=   32
   ions per type =               2
   NGX,Y,Z   is equivalent  to a cutoff of   6.93,  6.93,  6.93 a.u.
   NGXF,Y,Z  is equivalent  to a cutoff of  13.86, 13.86, 13.86 a.u.

 SYSTEM =  Si                                      
 POSCAR =  Si                                      

 Startparameter for this run:
   NWRITE =      2    write-flag & timer
   PREC   = normal    normal or accurate (medium, high low for compatibility)
   ISTART =      0    job   : 0-new  1-cont  2-samecut
   ICHARG =      2    charge: 1-file 2-atom 10-const
   ISPIN  =      1    spin polarized calculation?
   LNONCOLLINEAR =      F non collinear calculations
   LSORBIT =      F    spin-orbit coupling
   INIWAV =      1    electr: 0-lowe 1-rand  2-diag
   LASPH  =      F    aspherical Exc in radial PAW
   METAGGA=      F    non-selfconsistent MetaGGA calc.

 Electronic Relaxation 1
   ENCUT  =  250.0 eV  18.37 Ry    4.29 a.u.   4.95  4.95  4.95*2*pi/ulx,y,z
   ENINI  =  250.0     initial cutoff
   ENAUG  =  322.1 eV  augmentation charge cutoff
   NELM   =     60;   NELMIN=  2; NELMDL= -5     # of ELM steps 
   EDIFF  = 0.1E-07   stopping-criterion for ELM
   LREAL  =      F    real-space projection
   NLSPLINE    = F    spline interpolate recip. space projectors
   LCOMPAT=      F    compatible to vasp.4.4
   GGA_COMPAT  = T    GGA compatible to vasp.4.4-vasp.4.6
   LMAXPAW     = -100 max onsite density
   LMAXMIX     =    2 max onsite mixed and CHGCAR
   VOSKOWN=      0    Vosko Wilk Nusair interpolation
   ROPT   =    0.00000
 Ionic relaxation
   EDIFFG = 0.1E-06   stopping-criterion for IOM
   NSW    =      0    number of steps for IOM
   NBLOCK =      1;   KBLOCK =      1    inner block; outer block 
   IBRION =     -1    ionic relax: 0-MD 1-quasi-New 2-CG
   NFREE  =      0    steps in history (QN), initial steepest desc. (CG)
   ISIF   =      2    stress and relaxation
   IWAVPR =     10    prediction:  0-non 1-charg 2-wave 3-comb
   ISYM   =      2    0-nonsym 1-usesym 2-fastsym
   LCORR  =      T    Harris-Foulkes like correction to forces

   POTIM  = 0.5000    time-step for ionic-motion
   TEIN   =    0.0    initial temperature
   TEBEG  =    0.0;   TEEND  =   0.0 temperature during run
   SMASS  =  -3.00    Nose mass-parameter (am)
   estimated Nose-frequenzy (Omega)   =  0.10E-29 period in steps =****** mass=  -0.337E-27a.u.
   SCALEE = 1.0000    scale energy and forces
   NPACO  =    256;   APACO  = 16.0  distance and # of slots for P.C.
   PSTRESS=    0.0 pullay stress

  Mass of Ions in am
   POMASS =  28.09
  Ionic Valenz
   ZVAL   =   4.00
  Atomic Wigner-Seitz radii
   RWIGS  =  -1.00
  virtual crystal weights 
   VCA    =   1.00
   NELECT =       8.0000    total number of electrons
   NUPDOWN=      -1.0000    fix difference up-down

 DOS related values:
   EMIN   =  10.00;   EMAX   =-10.00  energy-range for DOS
   EFERMI =   0.00
   ISMEAR =     0;   SIGMA  =   0.01  broadening in eV -4-tet -1-fermi 0-gaus

 Electronic relaxation 2 (details)
   IALGO  =     38    algorithm
   LDIAG  =      T    sub-space diagonalisation (order eigenvalues)
   LSUBROT=      F    optimize rotation matrix (better conditioning)
   TURBO    =      0    0=normal 1=particle mesh
   IRESTART =      0    0=no restart 2=restart with 2 vectors
   NREBOOT  =      0    no. of reboots
   NMIN     =      0    reboot dimension
   EREF     =   0.00    reference energy to select bands
   IMIX   =      4    mixing-type and parameters
     AMIX     =   0.40;   BMIX     =  1.00
     AMIX_MAG =   1.60;   BMIX_MAG =  1.00
     AMIN     =   0.10
     WC   =   100.;   INIMIX=   1;  MIXPRE=   1;  MAXMIX= -45

 Intra band minimization:
   WEIMIN = 0.0000     energy-eigenvalue tresh-hold
   EBREAK =  0.16E-09  absolut break condition
   DEPER  =   0.30     relativ break condition  

   TIME   =   0.40     timestep for ELM

  volume/ion in A,a.u.               =      20.01       135.05
  Fermi-wavevector in a.u.,A,eV,Ry     =   0.957176  1.808800 12.465458  0.916185
  Thomas-Fermi vector in A             =   2.086170
 
 Write flags
   LWAVE        =      T    write WAVECAR
   LDOWNSAMPLE  =      F    k-point downsampling of WAVECAR
   LCHARG       =      T    write CHGCAR
   LVTOT        =      F    write LOCPOT, total local potential
   LVHAR        =      F    write LOCPOT, Hartree potential only
   LELF         =      F    write electronic localiz. function (ELF)
   LORBIT       =      0    0 simple, 1 ext, 2 COOP (PROOUT), +10 PAW based schemes


 Dipole corrections
   LMONO  =      F    monopole corrections only (constant potential shift)
   LDIPOL =      F    correct potential (dipole corrections)
   IDIPOL =      0    1-x, 2-y, 3-z, 4-all directions 
   EPSILON=  1.0000000 bulk dielectric constant

 Exchange correlation treatment:
   GGA     =    --    GGA type
   LEXCH   =     8    internal setting for exchange type
   VOSKOWN=      0    Vosko Wilk Nusair interpolation
   LHFCALC =     F    Hartree Fock is set to
   LHFONE  =     F    Hartree Fock one center treatment
   AEXX    =    0.0000 exact exchange contribution

 Linear response parameters
   LEPSILON=     F    determine dielectric tensor
   LRPA    =     F    only Hartree local field effects (RPA)
   LNABLA  =     F    use nabla operator in PAW spheres
   LVEL    =     F    velocity operator in full k-point grid
   LINTERFAST=   F  fast interpolation
   KINTER  =     0    interpolate to denser k-point grid
   CSHIFT  =0.1000    complex shift for real part using Kramers Kronig
   OMEGAMAX=  40.0    maximum frequency
   DEG_THRESHOLD= 0.2000000E-02 threshold for treating states as degnerate
   RTIME   =   -0.100 relaxation time in fs
  (WPLASMAI=    0.000 imaginary part of plasma frequency in eV, 0.658/RTIME)
   DFIELD  = 0.0000000 0.0000000 0.0000000 field for delta impulse in time
 
 Orbital magnetization related:
   ORBITALMAG=     F  switch on orbital magnetization
   LCHIMAG   =     F  perturbation theory with respect to B field
   DQ        =  0.001000  dq finite difference perturbation B field
   LLRAUG    =     F  two centre corrections for induced B field

 PEAD related settings:
   LPEAD      =     T    switch on PEAD
   IPEAD      =     4    finite difference order for dpsi/dk
   LCALCPOL   =     F    calculate macroscopic polarization
   LCALCEPS   =     F    calculate dielectric tensor
   EFIELD_PEAD=    0.0000    0.0000    0.0000
   SKIP_EDOTP =     F
   LRPA       =     F
   SKIP_SCF   =     F


--------------------------------------------------------------------------------------------------------


 Static calculation
 charge density and potential will be updated during run
 non-spin polarized calculation
 Variant of blocked Davidson
 Davidson routine will perform the subspace rotation
 perform sub-space diagonalisation
    after iterative eigenvector-optimisation
 modified Broyden-mixing scheme, WC =      100.0
 initial mixing is a Kerker type mixing with AMIX =  0.4000 and BMIX =      1.0000
 Hartree-type preconditioning will be used
 using additional bands           12
 reciprocal scheme for non local part
 use partial core corrections
 calculate Harris-corrections to forces 
   (improved forces if not selfconsistent)
 use gradient corrections 
 use of overlap-Matrix (Vanderbilt PP)
 Gauss-broadening in eV      SIGMA  =   0.01


--------------------------------------------------------------------------------------------------------


  energy-cutoff  :      250.00
  volume of cell :       40.03
      direct lattice vectors                 reciprocal lattice vectors
     2.715000000  2.715000000  0.000000000     0.184162063  0.184162063 -0.184162063
     0.000000000  2.715000000  2.715000000    -0.184162063  0.184162063  0.184162063
     2.715000000  0.000000000  2.715000000     0.184162063 -0.184162063  0.184162063

  length of vectors
     3.839589822  3.839589822  3.839589822     0.318978049  0.318978049  0.318978049


 
 k-points in units of 2pi/SCALE and weight: Automatically generated mesh            
   0.00000000  0.00000000  0.00000000       0.016
   0.25000000  0.25000000 -0.25000000       0.125
   0.50000000  0.50000000 -0.50000000       0.062
   0.00000000  0.50000000  0.00000000       0.094
   0.25000000  0.75000000 -0.25000000       0.375
  -0.50000000 -0.00000000  0.50000000       0.188
   0.00000000  1.00000000  0.00000000       0.047
  -0.50000000  0.00000000  1.00000000       0.094
 
 k-points in reciprocal lattice and weights: Automatically generated mesh            
   0.00000000  0.00000000  0.00000000       0.016
   0.25000000 -0.00000000  0.00000000       0.125
   0.50000000 -0.00000000  0.00000000       0.062
   0.25000000  0.25000000  0.00000000       0.094
   0.50000000  0.25000000  0.00000000       0.375
  -0.25000000  0.25000000  0.00000000       0.188
   0.50000000  0.50000000  0.00000000       0.047
  -0.25000000  0.50000000  0.25000000       0.094
 
 position of ions in fractional coordinates (direct lattice) 
   0.00000000  0.00000000  0.00000000
   0.25000000  0.25000000  0.25000000
 
 position of ions in cartesian coordinates  (Angst):
   0.00000000  0.00000000  0.00000000
   1.35750000  1.35750000  1.35750000
 


--------------------------------------------------------------------------------------------------------


 k-point  1 :   0.0000 0.0000 0.0000  plane waves:     339
 k-point  2 :   0.2500-0.0000 0.0000  plane waves:     356
 k-point  3 :   0.5000-0.0000 0.0000  plane waves:     368
 k-point  4 :   0.2500 0.2500 0.0000  plane waves:     351
 k-point  5 :   0.5000 0.2500 0.0000  plane waves:     362
 k-point  6 :  -0.2500 0.2500 0.0000  plane waves:     363
 k-point  7 :   0.5000 0.5000 0.0000  plane waves:     360
 k-point  8 :  -0.2500 0.5000 0.2500  plane waves:     360

 maximum and minimum number of plane-waves per node :       368      339

 maximum number of plane-waves:       368
 maximum index in each direction: 
   IXMAX=    5   IYMAX=    4   IZMAX=    4
   IXMIN=   -5   IYMIN=   -5   IZMIN=   -5


 serial   3D FFT for wavefunctions
 parallel 3D FFT for charge:
    minimum data exchange during FFTs selected (reduces bandwidth)


 total amount of memory used by VASP MPI-rank0    30836. kBytes
=======================================================================

   base      :      30000. kBytes
   nonl-proj :        200. kBytes
   fftplans  :        160. kBytes
   grid      :        372. kBytes
   one-center:          6. kBytes
   wavefun   :         98. kBytes
 
     INWAV:  cpu time    0.0000: real time    0.0000
 Broyden mixing: mesh for mixing (old mesh)
   NGX =  9   NGY =  9   NGZ =  9
  (NGX  = 32   NGY  = 32   NGZ  = 32)
  gives a total of    729 points

 initial charge density was supplied:
 charge density of overlapping atoms calculated
 number of electron       8.0000000 magnetization 
 keeping initial charge density in first step


--------------------------------------------------------------------------------------------------------


 Maximum index for augmentation-charges          433 (set IRDMAX)


--------------------------------------------------------------------------------------------------------


 First call to EWALD:  gamma=   0.518
 Maximum number of real-space cells 3x 3x 3
 Maximum number of reciprocal cells 3x 3x 3

    FEWALD:  cpu time    0.0010: real time    0.0010


--------------------------------------- Iteration      1(   1)  ---------------------------------------


    POTLOK:  cpu time    0.0042: real time    0.1663
    SETDIJ:  cpu time    0.0003: real time    0.0003
     EDDAV:  cpu time    0.0149: real time    0.0740
       DOS:  cpu time    0.0005: real time    0.0007
    --------------------------------------------
      LOOP:  cpu time    0.0199: real time    0.2413

 eigenvalue-minimisations  :   256
 total energy-change (2. order) : 0.1633982E+01  (-0.1947351E+03)
 number of electron       8.0000000 magnetization 
 augmentation part        8.0000000 magnetization 

 Free energy of the ion-electron system (eV)
  ---------------------------------------------------
  alpha Z        PSCENC =         3.36414726
  Ewald energy   TEWEN  =      -228.56352493
  -Hartree energ DENC   =       -11.00108242
  -exchange      EXHF   =         0.00000000
  -V(xc)+E(xc)   XCENC  =       -18.60180959
  PAW double counting   =       176.24759923     -141.06103558
  entropy T*S    EENTRO =        -0.00035262
  eigenvalues    EBANDS =        15.12654154
  atomic energy  EATOM  =       206.12349923
  Solvation  Ediel_sol  =         0.00000000
  ---------------------------------------------------
  free energy    TOTEN  =         1.63398213 eV

  energy without entropy =        1.63433474  energy(sigma->0) =        1.63415844


--------------------------------------------------------------------------------------------------------




--------------------------------------- Iteration      1(   2)  ---------------------------------------


     EDDAV:  cpu time    0.0121: real time    0.0125
       DOS:  cpu time    0.0001: real time    0.0001
    --------------------------------------------
      LOOP:  cpu time    0.0121: real time    0.0126

 eigenvalue-minimisations  :   336
 total energy-change (2. order) :-0.1215433E+02  (-0.1161604E+02)
 number of electron       8.0000000 magnetization 
 augmentation part        8.0000000 magnetization 

 Free energy of the ion-electron system (eV)
  ---------------------------------------------------
  alpha Z        PSCENC =         3.36414726
  Ewald energy   TEWEN  =      -228.56352493
  -Hartree energ DENC   =       -11.00108242
  -exchange      EXHF   =         0.00000000
  -V(xc)+E(xc)   XCENC  =       -18.60180959
  PAW double counting   =       176.24759923     -141.06103558
  entropy T*S    EENTRO =        -0.00000000
  eigenvalues    EBANDS =         2.97185903
  atomic energy  EATOM  =       206.12349923
  Solvation  Ediel_sol  =         0.00000000
  ---------------------------------------------------
  free energy    TOTEN  =       -10.52034776 eV

  energy without entropy =      -10.52034776  energy(sigma->0) =      -10.52034776


--------------------------------------------------------------------------------------------------------




--------------------------------------- Iteration      1(   3)  ---------------------------------------


     EDDAV:  cpu time    0.0109: real time    0.0113
       DOS:  cpu time    0.0001: real time    0.0001
    --------------------------------------------
      LOOP:  cpu time    0.0109: real time    0.0114

 eigenvalue-minimisations  :   328
 total energy-change (2. order) :-0.3162611E+00  (-0.3160253E+00)
 number of electron       8.0000000 magnetization 
 augmentation part        8.0000000 magnetization 

 Free energy of the ion-electron system (eV)
  ---------------------------------------------------
  alpha Z        PSCENC =         3.36414726
  Ewald energy   TEWEN  =      -228.56352493
  -Hartree energ DENC   =       -11.00108242
  -exchange      EXHF   =         0.00000000
  -V(xc)+E(xc)   XCENC  =       -18.60180959
  PAW double counting   =       176.24759923     -141.06103558
  entropy T*S    EENTRO =        -0.00000000
  eigenvalues    EBANDS =         2.65559797
  atomic energy  EATOM  =       206.12349923
  Solvation  Ediel_sol  =         0.00000000
  ---------------------------------------------------
  free energy    TOTEN  =       -10.83660882 eV

  energy without entropy =      -10.83660882  energy(sigma->0) =      -10.83660882


--------------------------------------------------------------------------------------------------------




--------------------------------------- Iteration      1(   4)  ---------------------------------------


     EDDAV:  cpu time    0.0110: real time    0.0114
       DOS:  cpu time    0.0001: real time    0.0001
    --------------------------------------------
      LOOP:  cpu time    0.0111: real time    0.0115

 eigenvalue-minimisations  :   328
 total energy-change (2. order) :-0.1378889E-02  (-0.1378844E-02)
 number of electron       8.0000000 magnetization 
 augmentation part        8.0000000 magnetization 

 Free energy of the ion-electron system (eV)
  ---------------------------------------------------
  alpha Z        PSCENC =         3.36414726
  Ewald energy   TEWEN  =      -228.56352493
  -Hartree energ DENC   =       -11.00108242
  -exchange      EXHF   =         0.00000000
  -V(xc)+E(xc)   XCENC  =       -18.60180959
  PAW double counting   =       176.24759923     -141.06103558
  entropy T*S    EENTRO =        -0.00000000
  eigenvalues    EBANDS =         2.65421909
  atomic energy  EATOM  =       206.12349923
  Solvation  Ediel_sol  =         0.00000000
  ---------------------------------------------------
  free energy    TOTEN  =       -10.83798771 eV

  energy without entropy =      -10.83798771  energy(sigma->0) =      -10.83798771


--------------------------------------------------------------------------------------------------------




--------------------------------------- Iteration      1(   5)  ---------------------------------------


     EDDAV:  cpu time    0.0106: real time    0.0109
       DOS:  cpu time    0.0001: real time    0.0001
    CHARGE:  cpu time    0.0013: real time    0.0013
    MIXING:  cpu time    0.0004: real time    0.0005
    --------------------------------------------
      LOOP:  cpu time    0.0123: real time    0.0128

 eigenvalue-minimisations  :   320
 total energy-change (2. order) :-0.8338851E-05  (-0.8338691E-05)
 number of electron       7.9999994 magnetization 
 augmentation part       -0.4654566 magnetization 

 Broyden mixing:
  rms(total) = 0.54191E+00    rms(broyden)= 0.54188E+00
  rms(prec ) = 0.10176E+01
  weight for this iteration     100.00

 Free energy of the ion-electron system (eV)
  ---------------------------------------------------
  alpha Z        PSCENC =         3.36414726
  Ewald energy   TEWEN  =      -228.56352493
  -Hartree energ DENC   =       -11.00108242
  -exchange      EXHF   =         0.00000000
  -V(xc)+E(xc)   XCENC  =       -18.60180959
  PAW double counting   =       176.24759923     -141.06103558
  entropy T*S    EENTRO =        -0.00000000
  eigenvalues    EBANDS =         2.65421075
  atomic energy  EATOM  =       206.12349923
  Solvation  Ediel_sol  =         0.00000000
  ---------------------------------------------------
  free energy    TOTEN  =       -10.83799605 eV

  energy without entropy =      -10.83799605  energy(sigma->0) =      -10.83799605


--------------------------------------------------------------------------------------------------------




--------------------------------------- Iteration      1(   6)  ---------------------------------------


    POTLOK:  cpu time    0.0016: real time    0.0020
    SETDIJ:  cpu time    0.0007: real time    0.0007
     EDDAV:  cpu time    0.0123: real time    0.0124
       DOS:  cpu time    0.0002: real time    0.0002
    CHARGE:  cpu time    0.0010: real time    0.0010
    MIXING:  cpu time    0.0003: real time    0.0003
    --------------------------------------------
      LOOP:  cpu time    0.0161: real time    0.0165

 eigenvalue-minimisations  :   344
 total energy-change (2. order) : 0.1405307E+00  (-0.5972650E-02)
 number of electron       7.9999994 magnetization 
 augmentation part       -0.4593325 magnetization 

 Broyden mixing:
  rms(total) = 0.33101E+00    rms(broyden)= 0.33101E+00
  rms(prec ) = 0.60619E+00
  weight for this iteration     100.00

 eigenvalues of (default mixing * dielectric matrix)
  average eigenvalue GAMMA=   2.5619
  2.5619

 Free energy of the ion-electron system (eV)
  ---------------------------------------------------
  alpha Z        PSCENC =         3.36414726
  Ewald energy   TEWEN  =      -228.56352493
  -Hartree energ DENC   =       -12.59808490
  -exchange      EXHF   =         0.00000000
  -V(xc)+E(xc)   XCENC  =       -18.34907471
  PAW double counting   =       416.80740351     -381.73836831
  entropy T*S    EENTRO =        -0.00000000
  eigenvalues    EBANDS =         4.25653753
  atomic energy  EATOM  =       206.12349923
  Solvation  Ediel_sol  =         0.00000000
  ---------------------------------------------------
  free energy    TOTEN  =       -10.69746533 eV

  energy without entropy =      -10.69746533  energy(sigma->0) =      -10.69746533


--------------------------------------------------------------------------------------------------------




--------------------------------------- Iteration      1(   7)  ---------------------------------------


    POTLOK:  cpu time    0.0018: real time    0.0022
    SETDIJ:  cpu time    0.0006: real time    0.0006
     EDDAV:  cpu time    0.0106: real time    0.0107
       DOS:  cpu time    0.0001: real time    0.0001
    CHARGE:  cpu time    0.0009: real time    0.0009
    MIXING:  cpu time    0.0002: real time    0.0002
    --------------------------------------------
      LOOP:  cpu time    0.0142: real time    0.0146

 eigenvalue-minimisations  :   304
 total energy-change (2. order) : 0.6343257E-01  (-0.1236114E-01)
 number of electron       7.9999994 magnetization 
 augmentation part       -0.4513284 magnetization 

 Broyden mixing:
  rms(total) = 0.19980E-01    rms(broyden)= 0.19979E-01
  rms(prec ) = 0.44122E-01
  weight for this iteration     100.00

 eigenvalues of (default mixing * dielectric matrix)
  average eigenvalue GAMMA=   2.1444
  1.9088  2.3800

 Free energy of the ion-electron system (eV)
  ---------------------------------------------------
  alpha Z        PSCENC =         3.36414726
  Ewald energy   TEWEN  =      -228.56352493
  -Hartree energ DENC   =       -15.24507053
  -exchange      EXHF   =         0.00000000
  -V(xc)+E(xc)   XCENC  =       -17.92533407
  PAW double counting   =      1015.19841361     -980.28473222
  entropy T*S    EENTRO =        -0.00000000
  eigenvalues    EBANDS =         6.69856889
  atomic energy  EATOM  =       206.12349923
  Solvation  Ediel_sol  =         0.00000000
  ---------------------------------------------------
  free energy    TOTEN  =       -10.63403276 eV

  energy without entropy =      -10.63403276  energy(sigma->0) =      -10.63403276


--------------------------------------------------------------------------------------------------------




--------------------------------------- Iteration      1(   8)  ---------------------------------------


    POTLOK:  cpu time    0.0016: real time    0.0020
    SETDIJ:  cpu time    0.0007: real time    0.0007
     EDDAV:  cpu time    0.0133: real time    0.0134
       DOS:  cpu time    0.0001: real time    0.0001
    CHARGE:  cpu time    0.0009: real time    0.0009
    MIXING:  cpu time    0.0002: real time    0.0002
    --------------------------------------------
      LOOP:  cpu time    0.0168: real time    0.0172

 eigenvalue-minimisations  :   296
 total energy-change (2. order) :-0.1819641E-02  (-0.6645733E-03)
 number of electron       7.9999994 magnetization 
 augmentation part       -0.4521036 magnetization 

 Broyden mixing:
  rms(total) = 0.98341E-02    rms(broyden)= 0.98335E-02
  rms(prec ) = 0.15753E-01
  weight for this iteration     100.00

 eigenvalues of (default mixing * dielectric matrix)
  average eigenvalue GAMMA=   2.0931
  2.7545  1.7625  1.7625

 Free energy of the ion-electron system (eV)
  ---------------------------------------------------
  alpha Z        PSCENC =         3.36414726
  Ewald energy   TEWEN  =      -228.56352493
  -Hartree energ DENC   =       -15.17034700
  -exchange      EXHF   =         0.00000000
  -V(xc)+E(xc)   XCENC  =       -17.92511505
  PAW double counting   =      1028.54280590     -993.59831136
  entropy T*S    EENTRO =        -0.00000000
  eigenvalues    EBANDS =         6.59099356
  atomic energy  EATOM  =       206.12349923
  Solvation  Ediel_sol  =         0.00000000
  ---------------------------------------------------
  free energy    TOTEN  =       -10.63585240 eV

  energy without entropy =      -10.63585240  energy(sigma->0) =      -10.63585240


--------------------------------------------------------------------------------------------------------




--------------------------------------- Iteration      1(   9)  ---------------------------------------


    POTLOK:  cpu time    0.0017: real time    0.0020
    SETDIJ:  cpu time    0.0006: real time    0.0006
     EDDAV:  cpu time    0.0115: real time    0.0116
       DOS:  cpu time    0.0001: real time    0.0001
    CHARGE:  cpu time    0.0009: real time    0.0009
    MIXING:  cpu time    0.0002: real time    0.0002
    --------------------------------------------
      LOOP:  cpu time    0.0151: real time    0.0154

 eigenvalue-minimisations  :   352
 total energy-change (2. order) :-0.2338306E-03  (-0.1464175E-04)
 number of electron       7.9999994 magnetization 
 augmentation part       -0.4522060 magnetization 

 Broyden mixing:
  rms(total) = 0.67768E-02    rms(broyden)= 0.67768E-02
  rms(prec ) = 0.80674E-02
  weight for this iteration     100.00

 eigenvalues of (default mixing * dielectric matrix)
  average eigenvalue GAMMA=   2.1572
  2.6798  2.5399  2.5399  0.8690

 Free energy of the ion-electron system (eV)
  ---------------------------------------------------
  alpha Z        PSCENC =         3.36414726
  Ewald energy   TEWEN  =      -228.56352493
  -Hartree energ DENC   =       -15.22362357
  -exchange      EXHF   =         0.00000000
  -V(xc)+E(xc)   XCENC  =       -17.91513865
  PAW double counting   =      1040.15731380    -1005.21094923
  entropy T*S    EENTRO =        -0.00000000
  eigenvalues    EBANDS =         6.63218985
  atomic energy  EATOM  =       206.12349923
  Solvation  Ediel_sol  =         0.00000000
  ---------------------------------------------------
  free energy    TOTEN  =       -10.63608623 eV

  energy without entropy =      -10.63608623  energy(sigma->0) =      -10.63608623


--------------------------------------------------------------------------------------------------------




--------------------------------------- Iteration      1(  10)  ---------------------------------------


    POTLOK:  cpu time    0.0019: real time    0.0023
    SETDIJ:  cpu time    0.0007: real time    0.0007
     EDDAV:  cpu time    0.0096: real time    0.0096
       DOS:  cpu time    0.0001: real time    0.0001
    CHARGE:  cpu time    0.0009: real time    0.0009
    MIXING:  cpu time    0.0002: real time    0.0002
    --------------------------------------------
      LOOP:  cpu time    0.0133: real time    0.0137

 eigenvalue-minimisations  :   296
 total energy-change (2. order) :-0.3764748E-04  (-0.2270066E-05)
 number of electron       7.9999994 magnetization 
 augmentation part       -0.4521682 magnetization 

 Broyden mixing:
  rms(total) = 0.84989E-03    rms(broyden)= 0.84985E-03
  rms(prec ) = 0.16090E-02
  weight for this iteration     100.00

 eigenvalues of (default mixing * dielectric matrix)
  average eigenvalue GAMMA=   1.9008
  2.9270  2.3677  2.3677  0.9208  0.9208

 Free energy of the ion-electron system (eV)
  ---------------------------------------------------
  alpha Z        PSCENC =         3.36414726
  Ewald energy   TEWEN  =      -228.56352493
  -Hartree energ DENC   =       -15.23511525
  -exchange      EXHF   =         0.00000000
  -V(xc)+E(xc)   XCENC  =       -17.91446912
  PAW double counting   =      1030.74551551     -995.79959681
  entropy T*S    EENTRO =        -0.00000000
  eigenvalues    EBANDS =         6.64342023
  atomic energy  EATOM  =       206.12349923
  Solvation  Ediel_sol  =         0.00000000
  ---------------------------------------------------
  free energy    TOTEN  =       -10.63612388 eV

  energy without entropy =      -10.63612388  energy(sigma->0) =      -10.63612388


--------------------------------------------------------------------------------------------------------




--------------------------------------- Iteration      1(  11)  ---------------------------------------


    POTLOK:  cpu time    0.0017: real time    0.0020
    SETDIJ:  cpu time    0.0007: real time    0.0007
     EDDAV:  cpu time    0.0108: real time    0.0109
       DOS:  cpu time    0.0001: real time    0.0001
    CHARGE:  cpu time    0.0009: real time    0.0009
    MIXING:  cpu time    0.0002: real time    0.0002
    --------------------------------------------
      LOOP:  cpu time    0.0143: real time    0.0148

 eigenvalue-minimisations  :   328
 total energy-change (2. order) :-0.2306232E-05  (-0.4526987E-06)
 number of electron       7.9999994 magnetization 
 augmentation part       -0.4522047 magnetization 

 Broyden mixing:
  rms(total) = 0.61253E-03    rms(broyden)= 0.61252E-03
  rms(prec ) = 0.72086E-03
  weight for this iteration     100.00

 eigenvalues of (default mixing * dielectric matrix)
  average eigenvalue GAMMA=   2.2697
  3.3899  3.3899  2.6696  2.2469  1.0392  0.8826

 Free energy of the ion-electron system (eV)
  ---------------------------------------------------
  alpha Z        PSCENC =         3.36414726
  Ewald energy   TEWEN  =      -228.56352493
  -Hartree energ DENC   =       -15.23371529
  -exchange      EXHF   =         0.00000000
  -V(xc)+E(xc)   XCENC  =       -17.91437238
  PAW double counting   =      1031.02845372     -996.08135646
  entropy T*S    EENTRO =        -0.00000000
  eigenvalues    EBANDS =         6.64074265
  atomic energy  EATOM  =       206.12349923
  Solvation  Ediel_sol  =         0.00000000
  ---------------------------------------------------
  free energy    TOTEN  =       -10.63612619 eV

  energy without entropy =      -10.63612619  energy(sigma->0) =      -10.63612619


--------------------------------------------------------------------------------------------------------




--------------------------------------- Iteration      1(  12)  ---------------------------------------


    POTLOK:  cpu time    0.0018: real time    0.0024
    SETDIJ:  cpu time    0.0007: real time    0.0007
     EDDAV:  cpu time    0.0093: real time    0.0093
       DOS:  cpu time    0.0001: real time    0.0001
    CHARGE:  cpu time    0.0008: real time    0.0008
    MIXING:  cpu time    0.0002: real time    0.0002
    --------------------------------------------
      LOOP:  cpu time    0.0128: real time    0.0135

 eigenvalue-minimisations  :   280
 total energy-change (2. order) :-0.2517524E-06  (-0.8162637E-07)
 number of electron       7.9999994 magnetization 
 augmentation part       -0.4521953 magnetization 

 Broyden mixing:
  rms(total) = 0.94618E-03    rms(broyden)= 0.94618E-03
  rms(prec ) = 0.96732E-03
  weight for this iteration     100.00

 eigenvalues of (default mixing * dielectric matrix)
  average eigenvalue GAMMA=   1.9388
  3.1263  2.7025  2.6836  2.3058  0.9895  0.8955  0.8685

 Free energy of the ion-electron system (eV)
  ---------------------------------------------------
  alpha Z        PSCENC =         3.36414726
  Ewald energy   TEWEN  =      -228.56352493
  -Hartree energ DENC   =       -15.23440579
  -exchange      EXHF   =         0.00000000
  -V(xc)+E(xc)   XCENC  =       -17.91464089
  PAW double counting   =      1030.33389770     -995.38674665
  entropy T*S    EENTRO =        -0.00000000
  eigenvalues    EBANDS =         6.64164763
  atomic energy  EATOM  =       206.12349923
  Solvation  Ediel_sol  =         0.00000000
  ---------------------------------------------------
  free energy    TOTEN  =       -10.63612644 eV

  energy without entropy =      -10.63612644  energy(sigma->0) =      -10.63612644


--------------------------------------------------------------------------------------------------------




--------------------------------------- Iteration      1(  13)  ---------------------------------------


    POTLOK:  cpu time    0.0016: real time    0.0020
    SETDIJ:  cpu time    0.0006: real time    0.0006
     EDDAV:  cpu time    0.0129: real time    0.0129
       DOS:  cpu time    0.0001: real time    0.0001
    CHARGE:  cpu time    0.0009: real time    0.0009
    MIXING:  cpu time    0.0002: real time    0.0002
    --------------------------------------------
      LOOP:  cpu time    0.0163: real time    0.0167

 eigenvalue-minimisations  :   384
 total energy-change (2. order) :-0.1349263E-06  (-0.4512535E-08)
 number of electron       7.9999994 magnetization 
 augmentation part       -0.4521964 magnetization 

 Broyden mixing:
  rms(total) = 0.75425E-04    rms(broyden)= 0.75425E-04
  rms(prec ) = 0.76433E-04
  weight for this iteration     100.00

 eigenvalues of (default mixing * dielectric matrix)
  average eigenvalue GAMMA=   1.9694
  3.2506  2.5950  2.4299  2.4299  2.1453  1.0302  0.9755  0.8986

 Free energy of the ion-electron system (eV)
  ---------------------------------------------------
  alpha Z        PSCENC =         3.36414726
  Ewald energy   TEWEN  =      -228.56352493
  -Hartree energ DENC   =       -15.23503189
  -exchange      EXHF   =         0.00000000
  -V(xc)+E(xc)   XCENC  =       -17.91446892
  PAW double counting   =      1030.14931810     -995.20223298
  entropy T*S    EENTRO =        -0.00000000
  eigenvalues    EBANDS =         6.64216756
  atomic energy  EATOM  =       206.12349923
  Solvation  Ediel_sol  =         0.00000000
  ---------------------------------------------------
  free energy    TOTEN  =       -10.63612657 eV

  energy without entropy =      -10.63612657  energy(sigma->0) =      -10.63612657


--------------------------------------------------------------------------------------------------------




--------------------------------------- Iteration      1(  14)  ---------------------------------------


    POTLOK:  cpu time    0.0018: real time    0.0022
    SETDIJ:  cpu time    0.0007: real time    0.0007
     EDDAV:  cpu time    0.0082: real time    0.0083
       DOS:  cpu time    0.0001: real time    0.0001
    --------------------------------------------
      LOOP:  cpu time    0.0108: real time    0.0112

 eigenvalue-minimisations  :   240
 total energy-change (2. order) : 0.3543619E-09  (-0.6461575E-10)
 number of electron       7.9999994 magnetization 
 augmentation part       -0.4521964 magnetization 

 Free energy of the ion-electron system (eV)
  ---------------------------------------------------
  alpha Z        PSCENC =         3.36414726
  Ewald energy   TEWEN  =      -228.56352493
  -Hartree energ DENC   =       -15.23505947
  -exchange      EXHF   =         0.00000000
  -V(xc)+E(xc)   XCENC  =       -17.91446256
  PAW double counting   =      1030.14826941     -995.20118702
  entropy T*S    EENTRO =        -0.00000000
  eigenvalues    EBANDS =         6.64219151
  atomic energy  EATOM  =       206.12349923
  Solvation  Ediel_sol  =         0.00000000
  ---------------------------------------------------
  free energy    TOTEN  =       -10.63612657 eV

  energy without entropy =      -10.63612657  energy(sigma->0) =      -10.63612657


--------------------------------------------------------------------------------------------------------




 average (electrostatic) potential at core
  the test charge radii are     0.9892
  (the norm of the test charge is              1.0000)
       1 -83.1774       2 -83.1774
 
 
 
 E-fermi :   6.0212     XC(G=0):  -9.3847     alpha+bet :-11.9845


 k-point     1 :       0.0000    0.0000    0.0000
  band No.  band energies     occupation 
      1      -6.0949      2.00000
      2       5.8855      2.00000
      3       5.8855      2.00000
      4       5.8855      2.00000
      5       8.4350      0.00000
      6       8.4350      0.00000
      7       8.4350      0.00000
      8       9.2559      0.00000
      9      13.6498      0.00000
     10      13.6498      0.00000
     11      13.8359      0.00000
     12      17.1313      0.00000
     13      17.1313      0.00000
     14      17.1313      0.00000
     15      21.2866      0.00000
     16      29.2034      0.00000

 k-point     2 :       0.2500   -0.0000    0.0000
  band No.  band energies     occupation 
      1      -5.2943      2.00000
      2       1.9461      2.00000
      3       5.1188      2.00000
      4       5.1188      2.00000
      5       7.9107      0.00000
      6       9.3822      0.00000
      7       9.3822      0.00000
      8      12.8096      0.00000
      9      13.0966      0.00000
     10      13.0967      0.00000
     11      14.8724      0.00000
     12      17.7326      0.00000
     13      20.5783      0.00000
     14      20.5783      0.00000
     15      23.8052      0.00000
     16      23.8053      0.00000

 k-point     3 :       0.5000   -0.0000    0.0000
  band No.  band energies     occupation 
      1      -3.7599      2.00000
      2      -1.1038      2.00000
      3       4.6769      2.00000
      4       4.6770      2.00000
      5       7.4213      0.00000
      6       9.2167      0.00000
      7       9.2167      0.00000
      8      13.5986      0.00000
      9      16.4783      0.00000
     10      16.4785      0.00000
     11      17.2411      0.00000
     12      17.2411      0.00000
     13      17.2602      0.00000
     14      18.9094      0.00000
     15      25.4016      0.00000
     16      25.8870      0.00000

 k-point     4 :       0.2500    0.2500    0.0000
  band No.  band energies     occupation 
      1      -5.0118      2.00000
      2       2.3631      2.00000
      3       3.9822      2.00000
      4       3.9822      2.00000
      5       7.0022      0.00000
      6       9.0130      0.00000
      7      11.6457      0.00000
      8      11.6457      0.00000
      9      13.9666      0.00000
     10      14.8512      0.00000
     11      17.3182      0.00000
     12      18.9259      0.00000
     13      18.9259      0.00000
     14      19.6454      0.00000
     15      23.3605      0.00000
     16      23.3605      0.00000

 k-point     5 :       0.5000    0.2500    0.0000
  band No.  band energies     occupation 
      1      -3.3730      2.00000
      2      -0.5108      2.00000
      3       2.3330      2.00000
      4       3.6655      2.00000
      5       7.3955      0.00000
      6      10.3340      0.00000
      7      11.6348      0.00000
      8      11.8085      0.00000
      9      16.1136      0.00000
     10      16.4618      0.00000
     11      18.1011      0.00000
     12      18.6204      0.00000
     13      18.9298      0.00000
     14      22.7898      0.00000
     15      23.6983      0.00000
     16      24.5910      0.00000

 k-point     6 :      -0.2500    0.2500    0.0000
  band No.  band energies     occupation 
      1      -4.0485      2.00000
      2       0.3938      2.00000
      3       2.1127      2.00000
      4       4.5465      2.00000
      5       8.3269      0.00000
      6      10.6629      0.00000
      7      11.0341      0.00000
      8      12.0287      0.00000
      9      12.3451      0.00000
     10      15.5359      0.00000
     11      18.5294      0.00000
     12      19.1352      0.00000
     13      19.3519      0.00000
     14      22.5895      0.00000
     15      23.0587      0.00000
     16      23.4279      0.00000

 k-point     7 :       0.5000    0.5000    0.0000
  band No.  band energies     occupation 
      1      -1.9449      2.00000
      2      -1.9449      2.00000
      3       3.0157      2.00000
      4       3.0158      2.00000
      5       6.5841      0.00000
      6       6.5841      0.00000
      7      15.9968      0.00000
      8      15.9968      0.00000
      9      16.9461      0.00000
     10      16.9461      0.00000
     11      18.4604      0.00000
     12      18.4604      0.00000
     13      18.9558      0.00000
     14      18.9558      0.00000
     15      24.8382      0.00000
     16      24.8382      0.00000

 k-point     8 :      -0.2500    0.5000    0.2500
  band No.  band energies     occupation 
      1      -1.7798      2.00000
      2      -1.7798      2.00000
      3       2.0118      2.00000
      4       2.0118      2.00000
      5      10.1590      0.00000
      6      10.1591      0.00000
      7      10.8823      0.00000
      8      10.8823      0.00000
      9      16.5047      0.00000
     10      16.5047      0.00000
     11      18.9534      0.00000
     12      18.9535      0.00000
     13      22.3798      0.00000
     14      22.3798      0.00000
     15      24.4759      0.00000
     16      24.4759      0.00000


--------------------------------------------------------------------------------------------------------


 soft charge-density along one line, spin component           1
         0         1         2         3         4         5         6         7         8         9
 total charge-density along one line
 
 pseudopotential strength for first ion, spin component:           1
 18.409  25.684  -0.000  -0.000  -0.000  -0.000  -0.000  -0.000
 25.684  35.838  -0.000  -0.000  -0.000  -0.000  -0.000  -0.000
 -0.000  -0.000   4.179  -0.000  -0.000   7.786  -0.000  -0.000
 -0.000  -0.000  -0.000   4.179  -0.000  -0.000   7.786  -0.000
 -0.000  -0.000  -0.000  -0.000   4.179  -0.000  -0.000   7.786
 -0.000  -0.000   7.786  -0.000  -0.000  14.520  -0.000  -0.000
 -0.000  -0.000  -0.000   7.786  -0.000  -0.000  14.520  -0.000
 -0.000  -0.000  -0.000  -0.000   7.786  -0.000  -0.000  14.520
 total augmentation occupancy for first ion, spin component:           1
  6.099  -2.365   0.000   0.000   0.000   0.000   0.000   0.000
 -2.365   1.006   0.000   0.000   0.000  -0.000  -0.000  -0.000
  0.000   0.000   3.396   0.000  -0.000  -0.823   0.000   0.000
  0.000   0.000   0.000   3.396   0.000   0.000  -0.823  -0.000
  0.000   0.000  -0.000   0.000   3.396   0.000  -0.000  -0.823
  0.000  -0.000  -0.823   0.000   0.000   0.208  -0.000  -0.000
  0.000  -0.000   0.000  -0.823  -0.000  -0.000   0.208   0.000
  0.000  -0.000   0.000  -0.000  -0.823  -0.000   0.000   0.208


------------------------ aborting loop because EDIFF is reached ----------------------------------------


    CHARGE:  cpu time    0.0009: real time    0.0009
    FORLOC:  cpu time    0.0001: real time    0.0001
    FORNL :  cpu time    0.0006: real time    0.0006
    STRESS:  cpu time    0.0037: real time    0.0038
    FORCOR:  cpu time    0.0014: real time    0.0015
    FORHAR:  cpu time    0.0004: real time    0.0004
    MIXING:  cpu time    0.0002: real time    0.0002
    OFIELD:  cpu time    0.0000: real time    0.0001

  FORCE on cell =-STRESS in cart. coord.  units (eV):
  Direction    XX          YY          ZZ          XY          YZ          ZX
  --------------------------------------------------------------------------------------
  Alpha Z     3.36415     3.36415     3.36415
  Ewald     -76.18788   -76.18788   -76.18788    -0.00000     0.00000     0.00000
  Hartree     5.07836     5.07836     5.07836    -0.00000    -0.00000    -0.00000
  E(xc)     -25.44146   -25.44146   -25.44146     0.00001     0.00001     0.00001
  Local     -29.51458   -29.51458   -29.51458     0.00005     0.00005     0.00005
  n-local    79.76220    73.81982    79.46150    -0.96685     0.96692     2.85415
  augment   -11.48317   -11.48317   -11.48317    -0.00004    -0.00004    -0.00004
  Kinetic    57.94763    54.57310    58.81584    -1.08337     1.08337     4.22087
  Fock        0.00000     0.00000     0.00000     0.00000     0.00000     0.00000
  -------------------------------------------------------------------------------------
  Total       0.60878     0.60878     0.60878     0.00000     0.00000    -0.00000
  in kB      24.36863    24.36863    24.36863     0.00000     0.00000    -0.00000
  external pressure =       24.37 kB  Pullay stress =        0.00 kB


 VOLUME and BASIS-vectors are now :
 -----------------------------------------------------------------------------
  energy-cutoff  :      250.00
  volume of cell :       40.03
      direct lattice vectors                 reciprocal lattice vectors
     2.715000000  2.715000000  0.000000000     0.184162063  0.184162063 -0.184162063
     0.000000000  2.715000000  2.715000000    -0.184162063  0.184162063  0.184162063
     2.715000000  0.000000000  2.715000000     0.184162063 -0.184162063  0.184162063

  length of vectors
     3.839589822  3.839589822  3.839589822     0.318978049  0.318978049  0.318978049


 FORCES acting on ions
    electron-ion (+dipol)            ewald-force                    non-local-force                 convergence-correction
 -----------------------------------------------------------------------------------------------
   0.292E-05 0.288E-05 0.292E-05   -.326E-14 0.274E-14 0.141E-14   -.486E-16 -.385E-16 -.972E-16   -.104E-07 -.104E-07 -.104E-07
   -.292E-05 -.288E-05 -.292E-05   0.284E-14 -.258E-14 -.126E-14   0.158E-16 0.213E-16 0.991E-16   0.104E-07 0.104E-07 0.104E-07
 -----------------------------------------------------------------------------------------------
   0.390E-13 0.199E-13 0.469E-13   -.426E-15 0.164E-15 0.147E-15   -.328E-16 -.173E-16 0.189E-17   -.536E-14 -.277E-15 -.384E-14
 
 
 POSITION                                       TOTAL-FORCE (eV/Angst)
 -----------------------------------------------------------------------------------
      0.00000      0.00000      0.00000         0.000000      0.000000      0.000000
      1.35750      1.35750      1.35750        -0.000000     -0.000000     -0.000000
 -----------------------------------------------------------------------------------
    total drift:                                0.000000      0.000000      0.000000


--------------------------------------------------------------------------------------------------------



  FREE ENERGIE OF THE ION-ELECTRON SYSTEM (eV)
  ---------------------------------------------------
  free  energy   TOTEN  =       -10.63612657 eV

  energy  without entropy=      -10.63612657  energy(sigma->0) =      -10.63612657
 


--------------------------------------------------------------------------------------------------------


    POTLOK:  cpu time    0.0021: real time    0.0021


--------------------------------------------------------------------------------------------------------


 writing wavefunctions
     LOOP+:  cpu time    0.2411: real time    0.6976


--------------------------------------------------------------------------------------------------------


    DPSIDK:  cpu time    0.0413: real time    0.0416
    DPSIDK:  cpu time    0.0400: real time    0.0402
    DPSIDK:  cpu time    0.0361: real time    0.0365

 plasma frequency squared (from intraband transitions) (eV^2)
  --------------------------------------------------------------------------------------
       0.000       0.000       0.000
       0.000       0.000       0.000
       0.000       0.000       0.000

 electrical conductivity sigma (Mega S m-1) (frequency dependency in vasprun.xml)
  --------------------------------------------------------------------------------------
       0.000       0.000       0.000
       0.000       0.000       0.000
       0.000       0.000       0.000

 plasma frequency squared (from interband transitions, int dw w eps(2)(w)) (eV^2)
  --------------------------------------------------------------------------------------
     219.411      -0.000      -0.000      -0.000       0.000      -0.000
      -0.000      -0.000     219.411      -0.000      -0.000      -0.000
       0.000      -0.000      -0.000       0.000     219.411      -0.000
  --------------------------------------------------------------------------------------
 sumrule: sum of plasma frequencies squared should yield (valence only):     275.596

 Anomalous Hall contribution (eV) 2/pi Imag((f_n-f_m)<u_m| d/dk_a u_n> <u_m| d/dk_b u_n>^*) 
  --------------------------------------------------------------------------------------
      -0.000       0.000      -0.000
      -0.000      -0.000       0.000
      -0.000       0.000      -0.000

  frequency dependent IMAGINARY DIELECTRIC FUNCTION (independent particle, no local field effects) density-density
     E(ev)      X         Y         Z        XY        YZ        ZX
  --------------------------------------------------------------------------------------------------------------
    0.000000    0.000000    0.000000    0.000000    0.000000    0.000000    0.000000
    0.400400    0.073881    0.073881    0.073881   -0.000000   -0.000000    0.000000
    0.800801    0.163542    0.163542    0.163542   -0.000000   -0.000000    0.000000
    1.201201    0.295677    0.295677    0.295677   -0.000000   -0.000000    0.000000
    1.601602    0.538334    0.538334    0.538334   -0.000000   -0.000000    0.000000
    2.002002    1.163013    1.163013    1.163013   -0.000000   -0.000000    0.000000
    2.402402    5.221157    5.221157    5.221157   -0.000000   -0.000000    0.000000
    2.802803   31.491521   31.491521   31.491521   -0.000000   -0.000000    0.000000
    3.203203    9.181153    9.181153    9.181153   -0.000000   -0.000000    0.000000
    3.603604   34.244040   34.244040   34.244040   -0.000000   -0.000000    0.000000
    4.004004   12.589301   12.589301   12.589301   -0.000000   -0.000000    0.000000
    4.404404   13.349458   13.349458   13.349458   -0.000000   -0.000000    0.000000
    4.804805    4.162955    4.162955    4.162955   -0.000000   -0.000000    0.000000
    5.205205    3.345934    3.345934    3.345934   -0.000000   -0.000000    0.000000
    5.605606    0.991092    0.991092    0.991092   -0.000000   -0.000000    0.000000
    6.006006    2.809971    2.809971    2.809971   -0.000000   -0.000000    0.000000
    6.406406    1.102654    1.102654    1.102654   -0.000000   -0.000000    0.000000
    6.806807    0.739625    0.739625    0.739625   -0.000000   -0.000000    0.000000
    7.207207    0.734141    0.734141    0.734141   -0.000000   -0.000000    0.000000
    7.607608    3.816068    3.816068    3.816068   -0.000000   -0.000000    0.000000
    8.008008   11.904184   11.904184   11.904184   -0.000000   -0.000000    0.000000
    8.408408    2.140675    2.140675    2.140675   -0.000000   -0.000000    0.000000
    8.808809    2.789479    2.789479    2.789479   -0.000000   -0.000000    0.000000
    9.209209    2.487620    2.487620    2.487620   -0.000000   -0.000000    0.000000
    9.609610    1.227896    1.227896    1.227896   -0.000000   -0.000000    0.000000
   10.010010    1.239186    1.239186    1.239186   -0.000000   -0.000000    0.000000
   10.410410    0.340449    0.340449    0.340449   -0.000000   -0.000000    0.000000
   10.810811    1.794565    1.794565    1.794565   -0.000000   -0.000000    0.000000
   11.211211    0.629138    0.629138    0.629138   -0.000000   -0.000000    0.000000
   11.611612    0.662800    0.662800    0.662800   -0.000000   -0.000000    0.000000
   12.012012    0.532448    0.532448    0.532448   -0.000000   -0.000000    0.000000
   12.412412    0.275412    0.275412    0.275412   -0.000000   -0.000000    0.000000
   12.812813    0.366354    0.366354    0.366354   -0.000000   -0.000000    0.000000
   13.213213    0.167951    0.167951    0.167951   -0.000000   -0.000000    0.000000
   13.613614    0.157285    0.157285    0.157285   -0.000000   -0.000000    0.000000
   14.014014    0.132057    0.132057    0.132057   -0.000000   -0.000000    0.000000
   14.414414    0.388897    0.388897    0.388897   -0.000000   -0.000000    0.000000
   14.814815    0.257953    0.257953    0.257953   -0.000000   -0.000000    0.000000
   15.215215    0.298030    0.298030    0.298030   -0.000000   -0.000000    0.000000
   15.615616    0.497267    0.497267    0.497267   -0.000000   -0.000000    0.000000
   16.016016    0.300829    0.300829    0.300829   -0.000000   -0.000000    0.000000
   16.416416    0.493939    0.493939    0.493939   -0.000000   -0.000000    0.000000
   16.816817    0.244056    0.244056    0.244056   -0.000000   -0.000000    0.000000
   17.217217    0.271186    0.271186    0.271186   -0.000000   -0.000000    0.000000
   17.617618    0.092063    0.092063    0.092063   -0.000000   -0.000000    0.000000
   18.018018    0.088996    0.088996    0.088996   -0.000000   -0.000000    0.000000
   18.418418    0.097391    0.097391    0.097391   -0.000000   -0.000000    0.000000
   18.818819    0.164838    0.164838    0.164838   -0.000000   -0.000000    0.000000
   19.219219    0.118819    0.118819    0.118819   -0.000000   -0.000000    0.000000
   19.619620    0.103020    0.103020    0.103020   -0.000000   -0.000000    0.000000
   20.020020    0.152468    0.152468    0.152468   -0.000000   -0.000000    0.000000
   20.420420    0.318625    0.318625    0.318625   -0.000000   -0.000000    0.000000
   20.820821    0.096411    0.096411    0.096411   -0.000000   -0.000000    0.000000
   21.221221    0.032497    0.032497    0.032497   -0.000000   -0.000000    0.000000
   21.621622    0.026660    0.026660    0.026660   -0.000000   -0.000000    0.000000
   22.022022    0.075444    0.075444    0.075444   -0.000000   -0.000000    0.000000
   22.422422    0.082603    0.082603    0.082603   -0.000000   -0.000000    0.000000
   22.822823    0.030970    0.030970    0.030970   -0.000000   -0.000000    0.000000
   23.223223    0.062408    0.062408    0.062408   -0.000000   -0.000000    0.000000
   23.623624    0.013664    0.013664    0.013664   -0.000000   -0.000000    0.000000
   24.024024    0.010686    0.010686    0.010686   -0.000000   -0.000000    0.000000
   24.424424    0.007442    0.007442    0.007442   -0.000000   -0.000000    0.000000
   24.824825    0.007008    0.007008    0.007008   -0.000000   -0.000000    0.000000
   25.225225    0.010172    0.010172    0.010172   -0.000000   -0.000000    0.000000
   25.625626    0.006954    0.006954    0.006954   -0.000000   -0.000000    0.000000
   26.026026    0.017922    0.017922    0.017922   -0.000000   -0.000000    0.000000
   26.426426    0.019563    0.019563    0.019563   -0.000000   -0.000000    0.000000
   26.826827    0.038782    0.038782    0.038782   -0.000000   -0.000000    0.000000
   27.227227    0.023476    0.023476    0.023476   -0.000000   -0.000000    0.000000
   27.627628    0.019808    0.019808    0.019808   -0.000000   -0.000000    0.000000
   28.028028    0.043416    0.043416    0.043416   -0.000000   -0.000000    0.000000
   28.428428    0.016298    0.016298    0.016298   -0.000000   -0.000000    0.000000
   28.828829    0.012426    0.012426    0.012426   -0.000000   -0.000000    0.000000
   29.229229    0.061802    0.061802    0.061802   -0.000000   -0.000000    0.000000
   29.629630    0.006553    0.006553    0.006553   -0.000000   -0.000000    0.000000
   30.030030    0.003545    0.003545    0.003545   -0.000000   -0.000000    0.000000
   30.430430    0.002725    0.002725    0.002725   -0.000000   -0.000000    0.000000
   30.830831    0.002337    0.002337    0.002337   -0.000000   -0.000000    0.000000
   31.231231    0.002099    0.002099    0.002099   -0.000000   -0.000000    0.000000
   31.631632    0.001928    0.001928    0.001928   -0.000000   -0.000000    0.000000
   32.032032    0.001795    0.001795    0.001795   -0.000000   -0.000000    0.000000
   32.432432    0.001685    0.001685    0.001685   -0.000000   -0.000000    0.000000
   32.832833    0.001591    0.001591    0.001591   -0.000000   -0.000000    0.000000
   33.233233    0.001509    0.001509    0.001509   -0.000000   -0.000000    0.000000
   33.633634    0.001435    0.001435    0.001435   -0.000000   -0.000000    0.000000
   34.034034    0.001368    0.001368    0.001368   -0.000000   -0.000000    0.000000
   34.434434    0.001306    0.001306    0.001306   -0.000000   -0.000000    0.000000
   34.834835    0.001250    0.001250    0.001250   -0.000000   -0.000000    0.000000
   35.235235    0.001198    0.001198    0.001198   -0.000000   -0.000000    0.000000
   35.635636    0.001149    0.001149    0.001149   -0.000000   -0.000000    0.000000
   36.036036    0.001103    0.001103    0.001103   -0.000000   -0.000000    0.000000
   36.436436    0.001060    0.001060    0.001060   -0.000000   -0.000000    0.000000
   36.836837    0.001020    0.001020    0.001020   -0.000000   -0.000000    0.000000
   37.237237    0.000982    0.000982    0.000982   -0.000000   -0.000000    0.000000
   37.637638    0.000947    0.000947    0.000947   -0.000000   -0.000000    0.000000
   38.038038    0.000913    0.000913    0.000913   -0.000000   -0.000000    0.000000
   38.438438    0.000881    0.000881    0.000881   -0.000000   -0.000000    0.000000
   38.838839    0.000850    0.000850    0.000850   -0.000000   -0.000000    0.000000
   39.239239    0.000821    0.000821    0.000821   -0.000000   -0.000000    0.000000
   39.639640    0.000794    0.000794    0.000794   -0.000000   -0.000000    0.000000

  frequency dependent      REAL DIELECTRIC FUNCTION (independent particle, no local field effects) density-density
     E(ev)        X           Y           Z          XY          YZ          ZX
  --------------------------------------------------------------------------------------------------------------
    0.000000   11.885489   11.885489   11.885489   -0.000000   -0.000000    0.000000
    0.400400   12.030427   12.030427   12.030427   -0.000000   -0.000000    0.000000
    0.800801   12.495008   12.495008   12.495008   -0.000000   -0.000000    0.000000
    1.201201   13.387721   13.387721   13.387721   -0.000000   -0.000000    0.000000
    1.601602   14.983759   14.983759   14.983759   -0.000000   -0.000000    0.000000
    2.002002   18.087244   18.087244   18.087244   -0.000000   -0.000000    0.000000
    2.402402   26.348473   26.348473   26.348473   -0.000000   -0.000000    0.000000
    2.802803   14.617250   14.617250   14.617250   -0.000000   -0.000000    0.000000
    3.203203    9.089229    9.089229    9.089229   -0.000000   -0.000000    0.000000
    3.603604   28.186084   28.186084   28.186084   -0.000000   -0.000000    0.000000
    4.004004  -13.599484  -13.599484  -13.599484    0.000000   -0.000000    0.000000
    4.404404  -13.324036  -13.324036  -13.324036    0.000000    0.000000   -0.000000
    4.804805   -9.044503   -9.044503   -9.044503    0.000000    0.000000   -0.000000
    5.205205   -9.802752   -9.802752   -9.802752    0.000000    0.000000   -0.000000
    5.605606   -4.316696   -4.316696   -4.316696    0.000000    0.000000   -0.000000
    6.006006   -0.542647   -0.542647   -0.542647    0.000000   -0.000000   -0.000000
    6.406406   -2.911740   -2.911740   -2.911740    0.000000    0.000000   -0.000000
    6.806807   -1.204905   -1.204905   -1.204905    0.000000    0.000000   -0.000000
    7.207207    1.177636    1.177636    1.177636    0.000000    0.000000   -0.000000
    7.607608    4.700415    4.700415    4.700415   -0.000000   -0.000000    0.000000
    8.008008   -0.976122   -0.976122   -0.976122    0.000000   -0.000000   -0.000000
    8.408408   -4.361996   -4.361996   -4.361996    0.000000    0.000000   -0.000000
    8.808809   -1.411818   -1.411818   -1.411818   -0.000000    0.000000   -0.000000
    9.209209   -1.033157   -1.033157   -1.033157    0.000000    0.000000   -0.000000
    9.609610   -3.110626   -3.110626   -3.110626    0.000000    0.000000   -0.000000
   10.010010   -2.710951   -2.710951   -2.710951    0.000000    0.000000   -0.000000
   10.410410   -1.354513   -1.354513   -1.354513    0.000000    0.000000   -0.000000
   10.810811   -0.865425   -0.865425   -0.865425    0.000000    0.000000   -0.000000
[...]
   35.235235    0.809776    0.809776    0.809776    0.000000    0.000000   -0.000000
   35.635636    0.814472    0.814472    0.814472    0.000000    0.000000   -0.000000
   36.036036    0.818979    0.818979    0.818979    0.000000    0.000000   -0.000000
   36.436436    0.823309    0.823309    0.823309    0.000000    0.000000   -0.000000
   36.836837    0.827474    0.827474    0.827474    0.000000    0.000000   -0.000000
   37.237237    0.831482    0.831482    0.831482    0.000000    0.000000   -0.000000
   37.637638    0.835342    0.835342    0.835342    0.000000    0.000000   -0.000000
   38.038038    0.839064    0.839064    0.839064    0.000000    0.000000   -0.000000
   38.438438    0.842653    0.842653    0.842653    0.000000    0.000000   -0.000000
   38.838839    0.846117    0.846117    0.846117    0.000000    0.000000   -0.000000
   39.239239    0.849462    0.849462    0.849462    0.000000    0.000000   -0.000000
   39.639640    0.852694    0.852694    0.852694    0.000000    0.000000   -0.000000

  frequency dependent IMAGINARY DIELECTRIC FUNCTION (independent particle, no local field effects) current-current (2nd set in vasprun.xml)
     E(ev)      X         Y         Z        XY        YZ        ZX
  --------------------------------------------------------------------------------------------------------------
    0.000000   54.362142   54.362142   54.362142   -0.000000   -0.000000    0.000000
    0.400400    5.580887    5.580887    5.580887   -0.000000   -0.000000    0.000000
    0.800801    3.032759    3.032759    3.032759   -0.000000   -0.000000    0.000000
    1.201201    2.356627    2.356627    2.356627   -0.000000   -0.000000    0.000000
    1.601602    2.282410    2.282410    2.282410   -0.000000   -0.000000    0.000000
    2.002002    2.865785    2.865785    2.865785   -0.000000   -0.000000    0.000000
    2.402402    7.311793    7.311793    7.311793   -0.000000   -0.000000    0.000000
    2.802803   32.308370   32.308370   32.308370   -0.000000   -0.000000    0.000000
    3.203203    9.685406    9.685406    9.685406   -0.000000   -0.000000    0.000000
    3.603604   35.825150   35.825150   35.825150   -0.000000   -0.000000    0.000000
    4.004004   11.872477   11.872477   11.872477   -0.000000   -0.000000    0.000000
    4.404404   12.698965   12.698965   12.698965   -0.000000   -0.000000    0.000000
    4.804805    3.743798    3.743798    3.743798   -0.000000   -0.000000    0.000000
    5.205205    2.924770    2.924770    2.924770   -0.000000   -0.000000    0.000000
    5.605606    0.800577    0.800577    0.800577   -0.000000   -0.000000    0.000000
    6.006006    2.754085    2.754085    2.754085   -0.000000   -0.000000    0.000000
    6.406406    0.979338    0.979338    0.979338   -0.000000   -0.000000    0.000000
    6.806807    0.674612    0.674612    0.674612   -0.000000   -0.000000    0.000000
    7.207207    0.738848    0.738848    0.738848   -0.000000   -0.000000    0.000000
    7.607608    3.914053    3.914053    3.914053   -0.000000   -0.000000    0.000000
    8.008008   11.852117   11.852117   11.852117   -0.000000   -0.000000    0.000000
    8.408408    2.012782    2.012782    2.012782   -0.000000   -0.000000    0.000000
    8.808809    2.734735    2.734735    2.734735   -0.000000   -0.000000    0.000000
    9.209209    2.444938    2.444938    2.444938   -0.000000   -0.000000    0.000000
    9.609610    1.141295    1.141295    1.141295   -0.000000   -0.000000    0.000000
   10.010010    1.163841    1.163841    1.163841   -0.000000   -0.000000    0.000000
   10.410410    0.295062    0.295062    0.295062   -0.000000   -0.000000    0.000000
   10.810811    1.759583    1.759583    1.759583   -0.000000   -0.000000    0.000000
   11.211211    0.583430    0.583430    0.583430   -0.000000   -0.000000    0.000000
   11.611612    0.628491    0.628491    0.628491   -0.000000   -0.000000    0.000000
   12.012012    0.498876    0.498876    0.498876   -0.000000   -0.000000    0.000000
   12.412412    0.250658    0.250658    0.250658   -0.000000   -0.000000    0.000000
   12.812813    0.341138    0.341138    0.341138   -0.000000   -0.000000    0.000000
   13.213213    0.146353    0.146353    0.146353   -0.000000   -0.000000    0.000000
   13.613614    0.140915    0.140915    0.140915   -0.000000   -0.000000    0.000000
   14.014014    0.116659    0.116659    0.116659   -0.000000   -0.000000    0.000000
   14.414414    0.377903    0.377903    0.377903   -0.000000   -0.000000    0.000000
   14.814815    0.244934    0.244934    0.244934   -0.000000   -0.000000    0.000000
   15.215215    0.286742    0.286742    0.286742   -0.000000   -0.000000    0.000000
   15.615616    0.492384    0.492384    0.492384   -0.000000   -0.000000    0.000000
   16.016016    0.285112    0.285112    0.285112   -0.000000   -0.000000    0.000000
   16.416416    0.482365    0.482365    0.482365   -0.000000   -0.000000    0.000000
   16.816817    0.233821    0.233821    0.233821   -0.000000   -0.000000    0.000000
   17.217217    0.258364    0.258364    0.258364   -0.000000   -0.000000    0.000000
   17.617618    0.081431    0.081431    0.081431   -0.000000   -0.000000    0.000000
   18.018018    0.080752    0.080752    0.080752   -0.000000   -0.000000    0.000000
   18.418418    0.089689    0.089689    0.089689   -0.000000   -0.000000    0.000000
   18.818819    0.158503    0.158503    0.158503   -0.000000   -0.000000    0.000000
   19.219219    0.111102    0.111102    0.111102   -0.000000   -0.000000    0.000000
   19.619620    0.095612    0.095612    0.095612   -0.000000   -0.000000    0.000000
   20.020020    0.146387    0.146387    0.146387   -0.000000   -0.000000    0.000000
   20.420420    0.313553    0.313553    0.313553   -0.000000   -0.000000    0.000000
   20.820821    0.089899    0.089899    0.089899   -0.000000   -0.000000    0.000000
   21.221221    0.026572    0.026572    0.026572   -0.000000   -0.000000    0.000000
   21.621622    0.021701    0.021701    0.021701   -0.000000   -0.000000    0.000000
   22.022022    0.071047    0.071047    0.071047   -0.000000   -0.000000    0.000000
   22.422422    0.077663    0.077663    0.077663   -0.000000   -0.000000    0.000000
   22.822823    0.026355    0.026355    0.026355   -0.000000   -0.000000    0.000000
   23.223223    0.058154    0.058154    0.058154   -0.000000   -0.000000    0.000000
   23.623624    0.009530    0.009530    0.009530   -0.000000   -0.000000    0.000000
   24.024024    0.006921    0.006921    0.006921   -0.000000   -0.000000    0.000000
   24.424424    0.003934    0.003934    0.003934   -0.000000   -0.000000    0.000000
   24.824825    0.003768    0.003768    0.003768   -0.000000   -0.000000    0.000000
   25.225225    0.007084    0.007084    0.007084   -0.000000   -0.000000    0.000000
   25.625626    0.004124    0.004124    0.004124   -0.000000   -0.000000    0.000000
   26.026026    0.015374    0.015374    0.015374   -0.000000   -0.000000    0.000000
   26.426426    0.016994    0.016994    0.016994   -0.000000   -0.000000    0.000000
   26.826827    0.036475    0.036475    0.036475   -0.000000   -0.000000    0.000000
   27.227227    0.020943    0.020943    0.020943   -0.000000   -0.000000    0.000000
   27.627628    0.017423    0.017423    0.017423   -0.000000   -0.000000    0.000000
   28.028028    0.040994    0.040994    0.040994   -0.000000   -0.000000    0.000000
   28.428428    0.014085    0.014085    0.014085   -0.000000   -0.000000    0.000000
   28.828829    0.010480    0.010480    0.010480   -0.000000   -0.000000    0.000000
   29.229229    0.059506    0.059506    0.059506   -0.000000   -0.000000    0.000000
   29.629630    0.004519    0.004519    0.004519   -0.000000   -0.000000    0.000000
   30.030030    0.001658    0.001658    0.001658   -0.000000   -0.000000    0.000000
   30.430430    0.000943    0.000943    0.000943   -0.000000   -0.000000    0.000000
   30.830831    0.000644    0.000644    0.000644   -0.000000   -0.000000    0.000000
   31.231231    0.000483    0.000483    0.000483   -0.000000   -0.000000    0.000000
   31.631632    0.000384    0.000384    0.000384   -0.000000   -0.000000    0.000000
   32.032032    0.000317    0.000317    0.000317   -0.000000   -0.000000    0.000000
   32.432432    0.000268    0.000268    0.000268   -0.000000   -0.000000    0.000000
   32.832833    0.000231    0.000231    0.000231   -0.000000   -0.000000    0.000000
   33.233233    0.000202    0.000202    0.000202   -0.000000   -0.000000    0.000000
   33.633634    0.000179    0.000179    0.000179   -0.000000   -0.000000    0.000000
   34.034034    0.000159    0.000159    0.000159   -0.000000   -0.000000    0.000000
   34.434434    0.000143    0.000143    0.000143   -0.000000   -0.000000    0.000000
   34.834835    0.000130    0.000130    0.000130   -0.000000   -0.000000    0.000000
   35.235235    0.000118    0.000118    0.000118   -0.000000   -0.000000    0.000000
   35.635636    0.000107    0.000107    0.000107   -0.000000   -0.000000    0.000000
   36.036036    0.000098    0.000098    0.000098   -0.000000   -0.000000    0.000000
   36.436436    0.000091    0.000091    0.000091   -0.000000   -0.000000    0.000000
   36.836837    0.000083    0.000083    0.000083   -0.000000   -0.000000    0.000000
   37.237237    0.000077    0.000077    0.000077   -0.000000   -0.000000    0.000000
   37.637638    0.000072    0.000072    0.000072   -0.000000   -0.000000    0.000000
   38.038038    0.000066    0.000066    0.000066   -0.000000   -0.000000    0.000000
   38.438438    0.000062    0.000062    0.000062   -0.000000   -0.000000    0.000000
   38.838839    0.000058    0.000058    0.000058   -0.000000   -0.000000    0.000000
   39.239239    0.000054    0.000054    0.000054   -0.000000   -0.000000    0.000000
   39.639640    0.000050    0.000050    0.000050   -0.000000   -0.000000    0.000000

  frequency dependent      REAL DIELECTRIC FUNCTION (independent particle, no local field effects) current-current (2nd set in vasprun.xml)
     E(ev)        X           Y           Z          XY          YZ          ZX
  --------------------------------------------------------------------------------------------------------------
    0.000000   11.846182   11.846182   11.846182   -0.000000   -0.000000    0.000000
    0.400400   11.988361   11.988361   11.988361   -0.000000   -0.000000    0.000000
    0.800801   12.448422   12.448422   12.448422   -0.000000   -0.000000    0.000000
    1.201201   13.331533   13.331533   13.331533   -0.000000   -0.000000    0.000000
    1.601602   14.907060   14.907060   14.907060   -0.000000   -0.000000    0.000000
    2.002002   17.955510   17.955510   17.955510   -0.000000   -0.000000    0.000000
    2.402402   25.876233   25.876233   25.876233   -0.000000   -0.000000    0.000000
    2.802803   12.416694   12.416694   12.416694   -0.000000   -0.000000    0.000000
    3.203203    8.584030    8.584030    8.584030   -0.000000   -0.000000    0.000000
    3.603604   26.356006   26.356006   26.356006   -0.000000   -0.000000    0.000000
    4.004004  -14.250026  -14.250026  -14.250026    0.000000   -0.000000   -0.000000
    4.404404  -13.928071  -13.928071  -13.928071    0.000000    0.000000   -0.000000
    4.804805   -9.232168   -9.232168   -9.232168    0.000000    0.000000   -0.000000
    5.205205   -9.929026   -9.929026   -9.929026    0.000000    0.000000   -0.000000
    5.605606   -4.354688   -4.354688   -4.354688    0.000000    0.000000   -0.000000
    6.006006   -0.642703   -0.642703   -0.642703    0.000000   -0.000000   -0.000000
    6.406406   -2.943430   -2.943430   -2.943430    0.000000    0.000000   -0.000000
    6.806807   -1.226352   -1.226352   -1.226352    0.000000    0.000000   -0.000000
    7.207207    1.156789    1.156789    1.156789    0.000000   -0.000000   -0.000000
    7.607608    4.598376    4.598376    4.598376   -0.000000   -0.000000    0.000000
    8.008008   -1.271087   -1.271087   -1.271087    0.000000   -0.000000   -0.000000
    8.408408   -4.412240   -4.412240   -4.412240    0.000000    0.000000   -0.000000
    8.808809   -1.476020   -1.476020   -1.476020   -0.000000    0.000000   -0.000000
    9.209209   -1.085591   -1.085591   -1.085591    0.000000    0.000000   -0.000000
    9.609610   -3.135531   -3.135531   -3.135531    0.000000    0.000000   -0.000000
   10.010010   -2.734555   -2.734555   -2.734555    0.000000    0.000000   -0.000000
   10.410410   -1.360564   -1.360564   -1.360564    0.000000    0.000000   -0.000000
   10.810811   -0.898284   -0.898284   -0.898284    0.000000    0.000000   -0.000000
   11.211211   -1.562051   -1.562051   -1.562051    0.000000    0.000000   -0.000000
   11.611612   -0.969168   -0.969168   -0.969168    0.000000    0.000000   -0.000000
   12.012012   -1.022352   -1.022352   -1.022352    0.000000    0.000000   -0.000000
   12.412412   -0.538907   -0.538907   -0.538907    0.000000    0.000000   -0.000000
   12.812813   -0.612333   -0.612333   -0.612333    0.000000    0.000000   -0.000000
   13.213213   -0.425185   -0.425185   -0.425185    0.000000    0.000000   -0.000000
   13.613614   -0.122656   -0.122656   -0.122656    0.000000    0.000000   -0.000000
   14.014014   -0.084010   -0.084010   -0.084010    0.000000    0.000000   -0.000000
   14.414414    0.201416    0.201416    0.201416    0.000000    0.000000   -0.000000
   14.814815    0.034229    0.034229    0.034229    0.000000    0.000000   -0.000000
   15.215215    0.131374    0.131374    0.131374    0.000000    0.000000   -0.000000
   15.615616    0.591631    0.591631    0.591631    0.000000    0.000000   -0.000000
   16.016016   -0.270107   -0.270107   -0.270107    0.000000    0.000000   -0.000000
   16.416416    0.044482    0.044482    0.044482    0.000000    0.000000   -0.000000
   16.816817    0.132420    0.132420    0.132420    0.000000    0.000000   -0.000000
   17.217217   -0.109280   -0.109280   -0.109280    0.000000    0.000000   -0.000000
   17.617618    0.060979    0.060979    0.060979    0.000000    0.000000   -0.000000
   18.018018    0.257370    0.257370    0.257370    0.000000    0.000000   -0.000000
   18.418418    0.287750    0.287750    0.287750    0.000000    0.000000   -0.000000
   18.818819    0.401162    0.401162    0.401162    0.000000    0.000000   -0.000000
   19.219219    0.260901    0.260901    0.260901    0.000000    0.000000   -0.000000
   19.619620    0.274720    0.274720    0.274720    0.000000    0.000000   -0.000000
   20.020020    0.391406    0.391406    0.391406    0.000000    0.000000   -0.000000
   20.420420    0.475246    0.475246    0.475246    0.000000    0.000000   -0.000000
   20.820821    0.322836    0.322836    0.322836    0.000000    0.000000   -0.000000
   21.221221    0.371075    0.371075    0.371075    0.000000    0.000000   -0.000000
   21.621622    0.463603    0.463603    0.463603    0.000000    0.000000   -0.000000
   22.022022    0.512257    0.512257    0.512257    0.000000    0.000000   -0.000000
   22.422422    0.444733    0.444733    0.444733    0.000000    0.000000   -0.000000
   22.822823    0.473024    0.473024    0.473024    0.000000    0.000000   -0.000000
   23.223223    0.505986    0.505986    0.505986    0.000000    0.000000   -0.000000
   23.623624    0.511665    0.511665    0.511665    0.000000    0.000000   -0.000000
   24.024024    0.547858    0.547858    0.547858    0.000000    0.000000   -0.000000
   24.424424    0.571633    0.571633    0.571633    0.000000    0.000000   -0.000000
   24.824825    0.597925    0.597925    0.597925    0.000000    0.000000   -0.000000
   25.225225    0.610688    0.610688    0.610688    0.000000    0.000000   -0.000000
   25.625626    0.637269    0.637269    0.637269    0.000000    0.000000   -0.000000
   26.026026    0.667733    0.667733    0.667733    0.000000    0.000000   -0.000000
   26.426426    0.660438    0.660438    0.660438    0.000000    0.000000   -0.000000
   26.826827    0.689525    0.689525    0.689525    0.000000    0.000000   -0.000000
   27.227227    0.654266    0.654266    0.654266    0.000000    0.000000   -0.000000
   27.627628    0.669576    0.669576    0.669576    0.000000    0.000000   -0.000000
   28.028028    0.659641    0.659641    0.659641    0.000000    0.000000   -0.000000
   28.428428    0.685762    0.685762    0.685762    0.000000    0.000000   -0.000000
   28.828829    0.718928    0.718928    0.718928    0.000000    0.000000   -0.000000
   29.229229    0.661508    0.661508    0.661508    0.000000    0.000000   -0.000000
   29.629630    0.698418    0.698418    0.698418    0.000000    0.000000   -0.000000
   30.030030    0.716584    0.716584    0.716584    0.000000    0.000000   -0.000000
   30.430430    0.728829    0.728829    0.728829    0.000000    0.000000   -0.000000
   30.830831    0.738873    0.738873    0.738873    0.000000    0.000000   -0.000000
   31.231231    0.747717    0.747717    0.747717    0.000000    0.000000   -0.000000
   31.631632    0.755760    0.755760    0.755760    0.000000    0.000000   -0.000000
   32.032032    0.763204    0.763204    0.763204    0.000000    0.000000   -0.000000
   32.432432    0.770165    0.770165    0.770165    0.000000    0.000000   -0.000000
   32.832833    0.776720    0.776720    0.776720    0.000000    0.000000   -0.000000
   33.233233    0.782922    0.782922    0.782922    0.000000    0.000000   -0.000000
   33.633634    0.788811    0.788811    0.788811    0.000000    0.000000   -0.000000
   34.034034    0.794419    0.794419    0.794419    0.000000    0.000000   -0.000000
   34.434434    0.799770    0.799770    0.799770    0.000000    0.000000   -0.000000
   34.834835    0.804886    0.804886    0.804886    0.000000    0.000000   -0.000000
   35.235235    0.809784    0.809784    0.809784    0.000000    0.000000   -0.000000
   35.635636    0.814480    0.814480    0.814480    0.000000    0.000000   -0.000000
   36.036036    0.818987    0.818987    0.818987    0.000000    0.000000   -0.000000
   36.436436    0.823317    0.823317    0.823317    0.000000    0.000000   -0.000000
   36.836837    0.827481    0.827481    0.827481    0.000000    0.000000   -0.000000
   37.237237    0.831490    0.831490    0.831490    0.000000    0.000000   -0.000000
   37.637638    0.835350    0.835350    0.835350    0.000000    0.000000   -0.000000
   38.038038    0.839071    0.839071    0.839071    0.000000    0.000000   -0.000000
   38.438438    0.842661    0.842661    0.842661    0.000000    0.000000   -0.000000
   38.838839    0.846125    0.846125    0.846125    0.000000    0.000000   -0.000000
   39.239239    0.849470    0.849470    0.849470    0.000000    0.000000   -0.000000
   39.639640    0.852702    0.852702    0.852702    0.000000    0.000000   -0.000000
 
 The outermost node in the dielectric function lies at epsilon=  17.5


--------------------------------------------------------------------------------------------------------


    OPTICS:  cpu time    0.1739: real time    0.1771
    4ORBIT:  cpu time    0.0000: real time    0.0000

 total amount of memory used by VASP MPI-rank0    30836. kBytes
=======================================================================

   base      :      30000. kBytes
   nonl-proj :        200. kBytes
   fftplans  :        160. kBytes
   grid      :        372. kBytes
   one-center:          6. kBytes
   wavefun   :         98. kBytes
 
  
  
 General timing and accounting informations for this job:
 ========================================================
  
                  Total CPU time used (sec):        1.393
                            User time (sec):        0.611
                          System time (sec):        0.782
                         Elapsed time (sec):        2.833
  
                   Maximum memory used (kb):      136980.
                   Average memory used (kb):           0.
  
                          Minor page faults:        18219
                          Major page faults:           14
                 Voluntary context switches:         2311
